LAMMPS (23 Jun 2022 - Update 2)
WARNING: Using I/O redirection is unreliable with parallel runs. Better use -in switch to read input file. (../lammps.cpp:530)
Reading data file ...
  orthogonal box = (0 0 0) to (26.379509 26.379509 26.379509)
  2 by 2 by 3 MPI processor grid
  reading atoms ...
  1608 atoms
  scanning bonds ...
  2 = max bonds/atom
  scanning angles ...
  1 = max angles/atom
  reading bonds ...
  1000 bonds
  reading angles ...
  500 angles
Finding 1-2 1-3 1-4 neighbors ...
  special bond factors lj:    0        0        0       
  special bond factors coul:  0        0        0       
     2 = max # of 1-2 neighbors
     1 = max # of 1-3 neighbors
     1 = max # of 1-4 neighbors
     2 = max # of special neighbors
  special bonds CPU = 0.003 seconds
  read_data CPU = 0.023 seconds
Setting atom values ...
  500 settings made for charge
Setting atom values ...
  1000 settings made for charge
Setting atom values ...
  54 settings made for charge
Setting atom values ...
  54 settings made for charge
500 atoms in group wat
54 atoms in group Li
54 atoms in group Cl
PPPM initialization ...
  extracting TIP4P info from pair style
  using 12-bit tables for long-range coulomb (../kspace.cpp:342)
  G vector (1/distance) = 0.31127036
  grid = 25 25 25
  stencil order = 5
  estimated absolute RMS force accuracy = 0.0034097995
  estimated relative force accuracy = 1.026851e-05
  using double precision KISS FFT
  3d grid and FFT values/proc = 6400 1875
Generated 0 of 6 mixed pair_coeff terms from arithmetic mixing rule
Neighbor list info ...
  update every 1 steps, delay 0 steps, check yes
  max neighbors/atom: 2000, page size: 100000
  master list distance cutoff = 12.3092
  ghost atom cutoff = 12.3092
  binsize = 6.1546, bins = 5 5 5
  1 neighbor lists, perpetual/occasional/extra = 1 0 0
  (1) pair lj/cut/tip4p/long, perpetual
      attributes: half, newton on
      pair build: half/bin/newton
      stencil: half/bin/3d
      bin: standard
Setting up cg style minimization ...
  Unit style    : real
  Current step  : 0
Per MPI rank memory allocation (min/avg/max) = 8.944 | 8.964 | 9.004 Mbytes
   Step          Temp          E_pair         E_mol          TotEng         Press     
         0   0              641.68376      3.1566538e-05  641.68379      52703.279    
      1000   0             -15695.723      94.172312     -15601.551     -5299.7128    
Loop time of 5.92126 on 12 procs for 1000 steps with 1608 atoms

92.5% CPU use with 12 MPI tasks x no OpenMP threads

Minimization stats:
  Stopping criterion = max iterations
  Energy initial, next-to-last, final = 
      641.683787181595  -15601.0710018281   -15601.550789311
  Force two-norm initial, final = 2112.4623 42.476166
  Force max component initial, final = 608.22136 9.3161348
  Final line search alpha, max atom move = 0.0026960674 0.025116928
  Iterations, force evaluations = 1000 1842

MPI task timing breakdown:
Section |  min time  |  avg time  |  max time  |%varavg| %total
---------------------------------------------------------------
Pair    | 3.2954     | 3.6373     | 4.0013     |  11.7 | 61.43
Bond    | 0.017095   | 0.018059   | 0.019134   |   0.4 |  0.30
Kspace  | 1.5381     | 1.9007     | 2.2441     |  16.2 | 32.10
Neigh   | 0.030676   | 0.030755   | 0.030828   |   0.0 |  0.52
Comm    | 0.2269     | 0.23335    | 0.23857    |   0.7 |  3.94
Output  | 7.6131e-05 | 9.5981e-05 | 0.00030608 |   0.0 |  0.00
Modify  | 0          | 0          | 0          |   0.0 |  0.00
Other   |            | 0.1009     |            |       |  1.70

Nlocal:            134 ave         140 max         128 min
Histogram: 1 1 1 0 3 2 0 2 1 1
Nghost:        4116.92 ave        4183 max        4017 min
Histogram: 1 0 1 0 3 0 2 1 1 3
Neighs:        45853.6 ave       49043 max       42855 min
Histogram: 3 1 0 1 0 1 3 1 0 2

Total # of neighbors = 550243
Ave neighs/atom = 342.19092
Ave special neighs/atom = 1.8656716
Neighbor list builds = 16
Dangerous builds = 0
Finding SHAKE clusters ...
       0 = # of size 2 clusters
       0 = # of size 3 clusters
       0 = # of size 4 clusters
     500 = # of frozen angles
  find clusters CPU = 0.001 seconds
PPPM initialization ...
  extracting TIP4P info from pair style
  using 12-bit tables for long-range coulomb (../kspace.cpp:342)
  G vector (1/distance) = 0.31127036
  grid = 25 25 25
  stencil order = 5
  estimated absolute RMS force accuracy = 0.0034097995
  estimated relative force accuracy = 1.026851e-05
  using double precision KISS FFT
  3d grid and FFT values/proc = 6400 1875
Generated 0 of 6 mixed pair_coeff terms from arithmetic mixing rule
Setting up Verlet run ...
  Unit style    : real
  Current step  : 0
  Time step     : 0.001
Per MPI rank memory allocation (min/avg/max) = 8.694 | 8.714 | 8.754 Mbytes
   Step        Density          Temp          Press          TotEng    
         0   1.0219065      432.81576      3080883.3     -14267.536    
     10000   1.0293763      179.37058      1137.3612     -14472.742    
Loop time of 42.8916 on 12 procs for 10000 steps with 1608 atoms

Performance: 0.020 ns/day, 1191.432 hours/ns, 233.146 timesteps/s
92.1% CPU use with 12 MPI tasks x no OpenMP threads

MPI task timing breakdown:
Section |  min time  |  avg time  |  max time  |%varavg| %total
---------------------------------------------------------------
Pair    | 21.88      | 24.259     | 26.664     |  28.5 | 56.56
Bond    | 0.0070779  | 0.0079496  | 0.0093706  |   0.7 |  0.02
Kspace  | 8.0728     | 10.475     | 12.854     |  43.3 | 24.42
Neigh   | 0          | 0          | 0          |   0.0 |  0.00
Comm    | 1.1994     | 1.2291     | 1.2524     |   1.4 |  2.87
Output  | 6.2649e-05 | 8.4659e-05 | 0.00031113 |   0.0 |  0.00
Modify  | 4.6532     | 5.1489     | 6.7716     |  22.1 | 12.00
Other   |            | 1.771      |            |       |  4.13

Nlocal:            134 ave         139 max         128 min
Histogram: 2 0 1 0 2 3 0 0 1 3
Nghost:         4126.5 ave        4191 max        4024 min
Histogram: 1 0 1 0 2 1 2 1 2 2
Neighs:        45850.9 ave       48798 max       41816 min
Histogram: 1 0 2 1 1 0 1 4 0 2

Total # of neighbors = 550211
Ave neighs/atom = 342.17102
Ave special neighs/atom = 1.8656716
Neighbor list builds = 0
Dangerous builds = 0
PPPM initialization ...
  extracting TIP4P info from pair style
  using 12-bit tables for long-range coulomb (../kspace.cpp:342)
  G vector (1/distance) = 0.31144446
  grid = 25 25 25
  stencil order = 5
  estimated absolute RMS force accuracy = 0.0033852657
  estimated relative force accuracy = 1.0194627e-05
  using double precision KISS FFT
  3d grid and FFT values/proc = 6400 1875
Generated 0 of 6 mixed pair_coeff terms from arithmetic mixing rule
Setting up Verlet run ...
  Unit style    : real
  Current step  : 10000
  Time step     : 0.01
Per MPI rank memory allocation (min/avg/max) = 8.694 | 8.714 | 8.754 Mbytes
   Step        Density          Temp          Press          TotEng    
     10000   1.0293763      179.37058     -169309.72     -14472.742    
     20000   1.0287989      306.12889      174.93426     -13385.822    
Loop time of 42.6279 on 12 procs for 10000 steps with 1608 atoms

Performance: 0.203 ns/day, 118.411 hours/ns, 234.588 timesteps/s
92.3% CPU use with 12 MPI tasks x no OpenMP threads

MPI task timing breakdown:
Section |  min time  |  avg time  |  max time  |%varavg| %total
---------------------------------------------------------------
Pair    | 21.029     | 24.16      | 26.186     |  28.8 | 56.68
Bond    | 0.0070995  | 0.0080731  | 0.0096998  |   0.7 |  0.02
Kspace  | 8.2198     | 10.23      | 13.371     |  44.5 | 24.00
Neigh   | 0.0075491  | 0.0075702  | 0.0075896  |   0.0 |  0.02
Comm    | 1.2431     | 1.2898     | 1.3268     |   2.0 |  3.03
Output  | 6.3029e-05 | 7.8958e-05 | 0.00023891 |   0.0 |  0.00
Modify  | 4.6664     | 5.1586     | 6.7781     |  22.0 | 12.10
Other   |            | 1.773      |            |       |  4.16

Nlocal:            134 ave         143 max         122 min
Histogram: 1 0 0 0 4 2 1 1 2 1
Nghost:        4097.67 ave        4159 max        4010 min
Histogram: 1 0 1 1 2 2 0 1 1 3
Neighs:        45601.3 ave       48578 max       39349 min
Histogram: 1 0 0 1 0 1 3 1 3 2

Total # of neighbors = 547216
Ave neighs/atom = 340.30846
Ave special neighs/atom = 1.8656716
Neighbor list builds = 4
Dangerous builds = 0
PPPM initialization ...
  extracting TIP4P info from pair style
  using 12-bit tables for long-range coulomb (../kspace.cpp:342)
  G vector (1/distance) = 0.31143106
  grid = 25 25 25
  stencil order = 5
  estimated absolute RMS force accuracy = 0.003387149
  estimated relative force accuracy = 1.0200299e-05
  using double precision KISS FFT
  3d grid and FFT values/proc = 6400 1875
Generated 0 of 6 mixed pair_coeff terms from arithmetic mixing rule
Setting up Verlet run ...
  Unit style    : real
  Current step  : 20000
  Time step     : 0.1
Per MPI rank memory allocation (min/avg/max) = 8.694 | 8.714 | 8.754 Mbytes
   Step        Density          Temp          Press          TotEng    
     20000   1.0287989      306.12889     -15931.283     -13385.821    
     30000   1.0933098      296.6335       816.46549     -13529.013    
Loop time of 44.8523 on 12 procs for 10000 steps with 1608 atoms

Performance: 1.926 ns/day, 12.459 hours/ns, 222.954 timesteps/s
92.4% CPU use with 12 MPI tasks x no OpenMP threads

MPI task timing breakdown:
Section |  min time  |  avg time  |  max time  |%varavg| %total
---------------------------------------------------------------
Pair    | 22.169     | 25.85      | 27.551     |  27.3 | 57.63
Bond    | 0.0072654  | 0.008039   | 0.0093055  |   0.6 |  0.02
Kspace  | 8.9572     | 10.646     | 14.329     |  42.6 | 23.74
Neigh   | 0.085525   | 0.085603   | 0.085686   |   0.0 |  0.19
Comm    | 1.2658     | 1.2936     | 1.3202     |   1.2 |  2.88
Output  | 6.3386e-05 | 7.9889e-05 | 0.00025042 |   0.0 |  0.00
Modify  | 4.6957     | 5.1888     | 6.813      |  22.0 | 11.57
Other   |            | 1.781      |            |       |  3.97

Nlocal:            134 ave         142 max         126 min
Histogram: 1 1 1 2 1 1 0 3 1 1
Nghost:           4270 ave        4320 max        4227 min
Histogram: 3 0 1 0 3 1 1 1 0 2
Neighs:        49010.7 ave       53563 max       44948 min
Histogram: 2 0 2 2 1 0 2 1 1 1

Total # of neighbors = 588128
Ave neighs/atom = 365.75124
Ave special neighs/atom = 1.8656716
Neighbor list builds = 43
Dangerous builds = 0
PPPM initialization ...
  extracting TIP4P info from pair style
  using 12-bit tables for long-range coulomb (../kspace.cpp:342)
  G vector (1/distance) = 0.3099544
  grid = 24 24 24
  stencil order = 5
  estimated absolute RMS force accuracy = 0.0038280773
  estimated relative force accuracy = 1.1528141e-05
  using double precision KISS FFT
  3d grid and FFT values/proc = 5415 1152
Generated 0 of 6 mixed pair_coeff terms from arithmetic mixing rule
Setting up Verlet run ...
  Unit style    : real
  Current step  : 30000
  Time step     : 0.2
Per MPI rank memory allocation (min/avg/max) = 8.66 | 8.665 | 8.668 Mbytes
   Step        Density          Temp          Press          TotEng    
     30000   1.0933098      296.6335       4642.9516     -13529.011    
     40000   1.1147876      300.47164      450.93713     -13682.755    
Loop time of 43.6467 on 12 procs for 10000 steps with 1608 atoms

Performance: 3.959 ns/day, 6.062 hours/ns, 229.112 timesteps/s
94.3% CPU use with 12 MPI tasks x no OpenMP threads

MPI task timing breakdown:
Section |  min time  |  avg time  |  max time  |%varavg| %total
---------------------------------------------------------------
Pair    | 23.303     | 26.918     | 29.127     |  29.0 | 61.67
Bond    | 0.0069979  | 0.0078143  | 0.0089477  |   0.5 |  0.02
Kspace  | 8.0031     | 10.215     | 13.827     |  47.1 | 23.40
Neigh   | 0.17717    | 0.17751    | 0.17785    |   0.1 |  0.41
Comm    | 1.2757     | 1.2966     | 1.3137     |   0.9 |  2.97
Output  | 6.2411e-05 | 8.3377e-05 | 0.00030553 |   0.0 |  0.00
Modify  | 4.5162     | 4.7824     | 4.8593     |   3.8 | 10.96
Other   |            | 0.2488     |            |       |  0.57

Nlocal:            134 ave         141 max         122 min
Histogram: 1 0 0 0 2 2 3 1 1 2
Nghost:         4248.5 ave        4319 max        4199 min
Histogram: 2 1 1 3 1 1 1 0 1 1
Neighs:        49750.6 ave       55173 max       45311 min
Histogram: 2 1 0 2 1 2 3 0 0 1

Total # of neighbors = 597007
Ave neighs/atom = 371.27301
Ave special neighs/atom = 1.8656716
Neighbor list builds = 86
Dangerous builds = 0
PPPM initialization ...
  extracting TIP4P info from pair style
  using 12-bit tables for long-range coulomb (../kspace.cpp:342)
  G vector (1/distance) = 0.3104225
  grid = 24 24 24
  stencil order = 5
  estimated absolute RMS force accuracy = 0.0037548017
  estimated relative force accuracy = 1.1307474e-05
  using double precision KISS FFT
  3d grid and FFT values/proc = 5415 1152
Generated 0 of 6 mixed pair_coeff terms from arithmetic mixing rule
Setting up Verlet run ...
  Unit style    : real
  Current step  : 40000
  Time step     : 0.5
Per MPI rank memory allocation (min/avg/max) = 8.66 | 8.665 | 8.669 Mbytes
   Step        Density          Temp          Press          TotEng    
     40000   1.1147876      300.47164     -354.38819     -13682.755    
     50000   1.1070758      309.20841     -521.16623     -13761.497    
Loop time of 44.4044 on 12 procs for 10000 steps with 1608 atoms

Performance: 9.729 ns/day, 2.467 hours/ns, 225.203 timesteps/s
94.4% CPU use with 12 MPI tasks x no OpenMP threads

MPI task timing breakdown:
Section |  min time  |  avg time  |  max time  |%varavg| %total
---------------------------------------------------------------
Pair    | 24.775     | 27.306     | 29.805     |  27.3 | 61.49
Bond    | 0.0069789  | 0.0078192  | 0.0085201  |   0.4 |  0.02
Kspace  | 7.7517     | 10.255     | 12.783     |  44.5 | 23.09
Neigh   | 0.45898    | 0.45938    | 0.45994    |   0.0 |  1.03
Comm    | 1.3073     | 1.3272     | 1.3413     |   0.8 |  2.99
Output  | 6.4285e-05 | 7.9986e-05 | 0.00024425 |   0.0 |  0.00
Modify  | 4.5389     | 4.8031     | 4.8816     |   3.8 | 10.82
Other   |            | 0.2464     |            |       |  0.56

Nlocal:            134 ave         150 max         121 min
Histogram: 1 0 2 2 2 2 2 0 0 1
Nghost:        4279.17 ave        4315 max        4223 min
Histogram: 1 1 0 0 2 1 1 3 1 2
Neighs:        49526.8 ave       54031 max       42682 min
Histogram: 1 0 1 1 0 3 1 2 1 2

Total # of neighbors = 594321
Ave neighs/atom = 369.60261
Ave special neighs/atom = 1.8656716
Neighbor list builds = 220
Dangerous builds = 0
PPPM initialization ...
  extracting TIP4P info from pair style
  using 12-bit tables for long-range coulomb (../kspace.cpp:342)
  G vector (1/distance) = 0.31025558
  grid = 24 24 24
  stencil order = 5
  estimated absolute RMS force accuracy = 0.0037807821
  estimated relative force accuracy = 1.1385713e-05
  using double precision KISS FFT
  3d grid and FFT values/proc = 5415 1152
Generated 0 of 6 mixed pair_coeff terms from arithmetic mixing rule
Setting up Verlet run ...
  Unit style    : real
  Current step  : 0
  Time step     : 2
Per MPI rank memory allocation (min/avg/max) = 8.661 | 8.666 | 8.669 Mbytes
   Step        Density          Temp          Press          TotEng    
         0   1.1070758      309.20841     -1546.669      -13761.497    
    100000   1.1218179      296.119        345.44053     -13863.187    
    200000   1.1142085      291.54015     -147.63272     -13924.462    
    300000   1.1082839      307.47381      491.22633     -13880.536    
    400000   1.1010258      302.84423      551.37997     -13920.942    
    500000   1.1124392      292.21099     -300.46056     -13912.774    
    600000   1.1226027      300.74971     -754.35068     -13861.5      
    700000   1.1098544      304.10082     -1136.3335     -13828.664    
    800000   1.1155024      301.0008       669.64101     -13889.031    
    900000   1.1171466      298.80212      236.8466      -13870.367    
   1000000   1.1107932      302.19069      1302.2302     -13875.891    
   1100000   1.1118617      289.19197     -177.51624     -13968.095    
   1200000   1.1079083      290.23761      355.64405     -13912.899    
   1300000   1.1205595      294.42091      1024.9535     -13914.421    
   1400000   1.1110973      304.26446      315.20677     -13820.481    
   1500000   1.1095494      294.88323      228.66532     -13895.268    
   1600000   1.1103565      308.68107     -31.996059     -13893.17     
   1700000   1.1160565      296.59301     -1852.9278     -13922.199    
   1800000   1.1061407      291.25944      683.08464     -13970.832    
   1900000   1.1281044      293.4479       168.90123     -13872.604    
   2000000   1.1228869      299.40902      297.26907     -13950.814    
   2100000   1.1079171      299.47521      256.29945     -13929.199    
   2200000   1.1165483      299.77208      161.47999     -13864.457    
   2300000   1.1168307      283.69366      361.94038     -13938.976    
   2400000   1.1225397      298.84525      571.20863     -13877.674    
   2500000   1.1114781      295.24612     -658.95924     -13887.026    
   2600000   1.1083402      314.40966     -231.95736     -13870.803    
   2700000   1.1007905      298.54527     -1528.1149     -13866.796    
   2800000   1.1148185      303.57946      546.0237      -13896.45     
   2900000   1.129821       308.29375     -14.427869     -13857.1      
   3000000   1.0997261      306.71808     -812.64562     -13870.398    
   3100000   1.1141393      292.05236      430.94742     -13919.252    
   3200000   1.1093031      288.66763      131.60193     -13984.633    
   3300000   1.1095909      303.31202     -637.3951      -13937.207    
   3400000   1.1153617      299.46137      651.56188     -13875.009    
   3500000   1.1262603      311.33274      935.81083     -13828.742    
   3600000   1.1102773      299.35377     -663.17483     -13938.949    
   3700000   1.0872632      301.54942     -544.85523     -13868.708    
   3800000   1.1051804      310.90762     -209.18334     -13864.592    
   3900000   1.1025944      294.94178     -603.84045     -13919.898    
   4000000   1.100987       299.78166      114.35492     -13930.557    
   4100000   1.1073807      297.1536      -439.63081     -13943.158    
   4200000   1.1203218      296.20268      1280.728      -13861.792    
   4300000   1.1195716      300.31003      564.74327     -13863.698    
   4400000   1.1145085      295.65145     -580.33118     -13957.873    
   4500000   1.1158691      291.61544      177.96868     -13911.169    
   4600000   1.1132729      291.26374      486.59035     -13939.801    
   4700000   1.1313107      293.11123      1655.4384     -13958.404    
   4800000   1.1183019      292.87691      173.27219     -13925.685    
   4900000   1.1096754      301.09845     -326.71123     -13863.98     
   5000000   1.104802       294.00267      129.59996     -13935.007    
Loop time of 23441.6 on 12 procs for 5000000 steps with 1608 atoms

Performance: 36.858 ns/day, 0.651 hours/ns, 213.296 timesteps/s
94.0% CPU use with 12 MPI tasks x no OpenMP threads

MPI task timing breakdown:
Section |  min time  |  avg time  |  max time  |%varavg| %total
---------------------------------------------------------------
Pair    | 12900      | 13970      | 15000      | 611.8 | 59.59
Bond    | 3.6123     | 3.9385     | 4.3615     |  11.1 |  0.02
Kspace  | 4297.6     | 5330.9     | 6406.9     | 991.8 | 22.74
Neigh   | 852.47     | 852.79     | 853.4      |   1.0 |  3.64
Comm    | 720.26     | 731.3      | 739.41     |  18.7 |  3.12
Output  | 0.0032142  | 0.0040358  | 0.012628   |   4.1 |  0.00
Modify  | 2297       | 2428.2     | 2466.2     |  83.4 | 10.36
Other   |            | 124.7      |            |       |  0.53

Nlocal:            134 ave         146 max         126 min
Histogram: 1 2 3 1 1 0 1 2 0 1
Nghost:        4283.67 ave        4335 max        4243 min
Histogram: 3 1 0 0 4 1 1 0 0 2
Neighs:        49487.7 ave       56035 max       44665 min
Histogram: 2 1 1 3 0 2 1 0 0 2

Total # of neighbors = 593852
Ave neighs/atom = 369.31095
Ave special neighs/atom = 1.8656716
Neighbor list builds = 401970
Dangerous builds = 0
PPPM initialization ...
  extracting TIP4P info from pair style
  using 12-bit tables for long-range coulomb (../kspace.cpp:342)
  G vector (1/distance) = 0.31020612
  grid = 24 24 24
  stencil order = 5
  estimated absolute RMS force accuracy = 0.0037885122
  estimated relative force accuracy = 1.1408992e-05
  using double precision KISS FFT
  3d grid and FFT values/proc = 5415 1152
Generated 0 of 6 mixed pair_coeff terms from arithmetic mixing rule
Setting up Verlet run ...
  Unit style    : real
  Current step  : 0
  Time step     : 2
Per MPI rank memory allocation (min/avg/max) = 8.661 | 8.666 | 8.67 Mbytes
   Step        Density          Temp          Press          TotEng    
         0   1.104802       294.00267      171.68314     -13935.007    
    100000   1.1259977      292.36466      644.61232     -13917.061    
    200000   1.1246387      297.09073      986.1125      -13937.925    
    300000   1.1161144      295.59792      785.21102     -13976.998    
    400000   1.1089648      282.32147     -623.25637     -13896.459    
    500000   1.1082281      289.56636      1808.36       -13885.466    
    600000   1.114047       286.65066     -706.77875     -13946.37     
    700000   1.1233222      292.85867     -779.37246     -13981.695    
    800000   1.1165459      296.8385       473.45178     -13882.895    
    900000   1.1166734      289.15092      598.76176     -13935.297    
   1000000   1.1028511      298.02469      27.215831     -13953.496    
   1100000   1.1010556      290.32974     -200.67032     -13915.843    
   1200000   1.1197237      307.66646      2075.3292     -13896.352    
   1300000   1.1172801      302.78317     -1109.4964     -13896.096    
   1400000   1.1086032      308.17926     -395.0996      -13849.402    
   1500000   1.0984939      286.75451     -652.84031     -13938.893    
   1600000   1.1073511      296.39617      894.35373     -13881.75     
   1700000   1.1078669      324.74808      474.45921     -13807.017    
   1800000   1.1208243      293.86088      466.23258     -13943.563    
   1900000   1.1203916      293.77038     -423.9575      -13994.574    
   2000000   1.1099268      291.53651      320.32964     -13952.87     
   2100000   1.1327094      292.32455      1022.3499     -13993.705    
   2200000   1.1184853      293.75256     -696.20898     -13966.638    
   2300000   1.1056381      292.68158     -757.8025      -13963.538    
   2400000   1.1062759      293.63971      546.45422     -13878.398    
   2500000   1.1099445      312.71831     -807.652       -13850.074    
   2600000   1.1093313      302.63784     -180.76303     -13892.298    
   2700000   1.1087789      297.18769      183.14327     -13846.473    
   2800000   1.1106191      299.51113     -857.20976     -13857.768    
   2900000   1.1215947      301.50192     -228.88851     -13909.067    
   3000000   1.1287248      300.14421      167.72876     -13935.653    
   3100000   1.1144084      297.11566     -566.75852     -13959.754    
   3200000   1.1134977      298.98333      1047.0872     -13927.41     
   3300000   1.1197297      294.04193      88.609741     -13968.425    
   3400000   1.1173125      287.84193      261.2888      -13928.275    
   3500000   1.1122691      321.8995      -522.38776     -13756.403    
   3600000   1.1150652      285.57418      623.47024     -13936.451    
   3700000   1.108541       293.11319      843.16981     -13875.669    
   3800000   1.1267381      307.88324     -939.15192     -13921.797    
   3900000   1.0952048      300.2337      -1513.5235     -13897.078    
   4000000   1.118415       302.21113      74.434339     -13859.198    
   4100000   1.1029412      303.84059      782.13149     -13874.084    
   4200000   1.111082       304.24154      166.63141     -13832.109    
   4300000   1.1025149      305.77661     -808.31365     -13855.995    
   4400000   1.1166864      302.95696      640.88438     -13892.699    
   4500000   1.1157489      303.21039      1008.4445     -13908.836    
   4600000   1.1101043      302.16669      612.62067     -13870.913    
   4700000   1.1075542      309.79139     -556.23828     -13902.172    
   4800000   1.0995892      297.68813     -56.513708     -13908.52     
   4900000   1.1131141      288.33659      501.71809     -13959.636    
   5000000   1.1109844      293.94659     -8.8124337     -13954.832    
Loop time of 23669.1 on 12 procs for 5000000 steps with 1608 atoms

Performance: 36.503 ns/day, 0.657 hours/ns, 211.246 timesteps/s
93.8% CPU use with 12 MPI tasks x no OpenMP threads

MPI task timing breakdown:
Section |  min time  |  avg time  |  max time  |%varavg| %total
---------------------------------------------------------------
Pair    | 12948      | 13965      | 14923      | 596.2 | 59.00
Bond    | 3.8296     | 4.0603     | 4.5264     |   8.7 |  0.02
Kspace  | 4393.9     | 5355.1     | 6378.4     | 964.0 | 22.62
Neigh   | 853.32     | 853.7      | 854.37     |   1.0 |  3.61
Comm    | 721.3      | 733.56     | 742.07     |  20.3 |  3.10
Output  | 0.2226     | 0.22311    | 0.2283     |   0.3 |  0.00
Modify  | 2498.2     | 2629.9     | 2668.7     |  81.0 | 11.11
Other   |            | 127.4      |            |       |  0.54

Nlocal:            134 ave         149 max         124 min
Histogram: 1 2 3 1 1 2 0 1 0 1
Nghost:        4311.33 ave        4362 max        4228 min
Histogram: 1 1 0 1 1 0 1 3 2 2
Neighs:        49806.8 ave       56255 max       44115 min
Histogram: 1 2 1 1 2 1 1 2 0 1

Total # of neighbors = 597681
Ave neighs/atom = 371.69216
Ave special neighs/atom = 1.8656716
Neighbor list builds = 401969
Dangerous builds = 0
Changing box ...
  orthogonal box = (0.36237996 0.36237996 0.36237996) to (25.991625 26.017129 26.017129)
  orthogonal box = (0.36237996 0.36237996 0.36237996) to (25.991625 25.991625 26.017129)
  orthogonal box = (0.36237996 0.36237996 0.36237996) to (25.991625 25.991625 25.991625)
PPPM initialization ...
  extracting TIP4P info from pair style
  using 12-bit tables for long-range coulomb (../kspace.cpp:342)
  G vector (1/distance) = 0.31041208
  grid = 24 24 24
  stencil order = 5
  estimated absolute RMS force accuracy = 0.0037564192
  estimated relative force accuracy = 1.1312345e-05
  using double precision KISS FFT
  3d grid and FFT values/proc = 5415 1152
Generated 0 of 6 mixed pair_coeff terms from arithmetic mixing rule
Setting up Verlet run ...
  Unit style    : real
  Current step  : 5000000
  Time step     : 0.001
Per MPI rank memory allocation (min/avg/max) = 8.661 | 8.667 | 8.67 Mbytes
   Step        Density          Temp          Press          TotEng    
   5000000   1.1143043      293.94659     -18962.371     -13934.721    
   5010000   1.1143043      294.40697      907.7165      -13934.84     
Loop time of 30.6852 on 12 procs for 10000 steps with 1608 atoms

Performance: 0.028 ns/day, 852.367 hours/ns, 325.890 timesteps/s
93.5% CPU use with 12 MPI tasks x no OpenMP threads

MPI task timing breakdown:
Section |  min time  |  avg time  |  max time  |%varavg| %total
---------------------------------------------------------------
Pair    | 16.895     | 18.829     | 21.142     |  31.8 | 61.36
Bond    | 0.0034715  | 0.0042155  | 0.0050391  |   0.7 |  0.01
Kspace  | 7.1153     | 9.3351     | 11.228     |  44.1 | 30.42
Neigh   | 0          | 0          | 0          |   0.0 |  0.00
Comm    | 1.2283     | 1.2951     | 1.34       |   2.5 |  4.22
Output  | 6.465e-05  | 8.0377e-05 | 0.00023713 |   0.0 |  0.00
Modify  | 1.0227     | 1.049      | 1.0665     |   1.4 |  3.42
Other   |            | 0.1732     |            |       |  0.56

Nlocal:            134 ave         148 max         123 min
Histogram: 1 0 3 2 2 1 1 0 1 1
Nghost:        4317.67 ave        4363 max        4239 min
Histogram: 1 1 1 0 1 0 0 4 1 3
Neighs:        49954.7 ave       56148 max       44052 min
Histogram: 1 1 1 1 2 2 1 1 1 1

Total # of neighbors = 599456
Ave neighs/atom = 372.79602
Ave special neighs/atom = 1.8656716
Neighbor list builds = 0
Dangerous builds = 0
PPPM initialization ...
  extracting TIP4P info from pair style
  using 12-bit tables for long-range coulomb (../kspace.cpp:342)
  G vector (1/distance) = 0.31041208
  grid = 24 24 24
  stencil order = 5
  estimated absolute RMS force accuracy = 0.0037564192
  estimated relative force accuracy = 1.1312345e-05
  using double precision KISS FFT
  3d grid and FFT values/proc = 5415 1152
Generated 0 of 6 mixed pair_coeff terms from arithmetic mixing rule
Setting up Verlet run ...
  Unit style    : real
  Current step  : 5010000
  Time step     : 0.01
Per MPI rank memory allocation (min/avg/max) = 8.661 | 8.667 | 8.67 Mbytes
   Step        Density          Temp          Press          TotEng    
   5010000   1.1143043      294.40697      907.73152     -13934.84     
   5020000   1.1143043      300.36634      310.27794     -13895.513    
Loop time of 30.9662 on 12 procs for 10000 steps with 1608 atoms

Performance: 0.279 ns/day, 86.017 hours/ns, 322.933 timesteps/s
93.3% CPU use with 12 MPI tasks x no OpenMP threads

MPI task timing breakdown:
Section |  min time  |  avg time  |  max time  |%varavg| %total
---------------------------------------------------------------
Pair    | 17.138     | 18.858     | 21.407     |  33.3 | 60.90
Bond    | 0.0031789  | 0.0041574  | 0.0046783  |   0.6 |  0.01
Kspace  | 7.0995     | 9.5697     | 11.253     |  45.9 | 30.90
Neigh   | 0.0062236  | 0.0062304  | 0.0062354  |   0.0 |  0.02
Comm    | 1.2261     | 1.2852     | 1.3476     |   2.7 |  4.15
Output  | 6.3686e-05 | 8.115e-05  | 0.00025617 |   0.0 |  0.00
Modify  | 1.0528     | 1.0683     | 1.0825     |   1.0 |  3.45
Other   |            | 0.1745     |            |       |  0.56

Nlocal:            134 ave         150 max         116 min
Histogram: 1 0 2 0 2 2 1 3 0 1
Nghost:        4326.17 ave        4365 max        4279 min
Histogram: 1 0 1 2 0 3 1 2 1 1
Neighs:        49945.4 ave       56405 max       43230 min
Histogram: 1 1 2 2 1 1 0 0 1 3

Total # of neighbors = 599345
Ave neighs/atom = 372.72699
Ave special neighs/atom = 1.8656716
Neighbor list builds = 3
Dangerous builds = 0
PPPM initialization ...
  extracting TIP4P info from pair style
  using 12-bit tables for long-range coulomb (../kspace.cpp:342)
  G vector (1/distance) = 0.31041208
  grid = 24 24 24
  stencil order = 5
  estimated absolute RMS force accuracy = 0.0037564192
  estimated relative force accuracy = 1.1312345e-05
  using double precision KISS FFT
  3d grid and FFT values/proc = 5415 1152
Generated 0 of 6 mixed pair_coeff terms from arithmetic mixing rule
Setting up Verlet run ...
  Unit style    : real
  Current step  : 5020000
  Time step     : 0.1
Per MPI rank memory allocation (min/avg/max) = 8.661 | 8.667 | 8.67 Mbytes
   Step        Density          Temp          Press          TotEng    
   5020000   1.1143043      300.36634      310.78985     -13895.513    
   5030000   1.1143043      291.50991      411.96364     -13935.95     
Loop time of 30.85 on 12 procs for 10000 steps with 1608 atoms

Performance: 2.801 ns/day, 8.569 hours/ns, 324.149 timesteps/s
93.9% CPU use with 12 MPI tasks x no OpenMP threads

MPI task timing breakdown:
Section |  min time  |  avg time  |  max time  |%varavg| %total
---------------------------------------------------------------
Pair    | 17.06      | 18.994     | 21.025     |  28.4 | 61.57
Bond    | 0.0035197  | 0.0041802  | 0.0047126  |   0.6 |  0.01
Kspace  | 7.2596     | 9.1998     | 11.085     |  39.9 | 29.82
Neigh   | 0.084464   | 0.084532   | 0.084591   |   0.0 |  0.27
Comm    | 1.2567     | 1.3275     | 1.365      |   2.7 |  4.30
Output  | 6.5231e-05 | 7.983e-05  | 0.00022542 |   0.0 |  0.00
Modify  | 1.0492     | 1.0688     | 1.0938     |   1.4 |  3.46
Other   |            | 0.1711     |            |       |  0.55

Nlocal:            134 ave         142 max         121 min
Histogram: 2 0 0 1 1 2 0 1 0 5
Nghost:           4272 ave        4324 max        4238 min
Histogram: 3 0 2 2 1 1 1 1 0 1
Neighs:        49917.4 ave       56490 max       42972 min
Histogram: 1 0 3 0 1 3 1 1 1 1

Total # of neighbors = 599009
Ave neighs/atom = 372.51803
Ave special neighs/atom = 1.8656716
Neighbor list builds = 41
Dangerous builds = 0
PPPM initialization ...
  extracting TIP4P info from pair style
  using 12-bit tables for long-range coulomb (../kspace.cpp:342)
  G vector (1/distance) = 0.31041208
  grid = 24 24 24
  stencil order = 5
  estimated absolute RMS force accuracy = 0.0037564192
  estimated relative force accuracy = 1.1312345e-05
  using double precision KISS FFT
  3d grid and FFT values/proc = 5415 1152
Generated 0 of 6 mixed pair_coeff terms from arithmetic mixing rule
Setting up Verlet run ...
  Unit style    : real
  Current step  : 5030000
  Time step     : 0.2
Per MPI rank memory allocation (min/avg/max) = 8.661 | 8.667 | 8.67 Mbytes
   Step        Density          Temp          Press          TotEng    
   5030000   1.1143043      291.50991      411.94655     -13935.95     
   5040000   1.1143043      300.01341      79.840888     -13948.095    
Loop time of 31.2682 on 12 procs for 10000 steps with 1608 atoms

Performance: 5.526 ns/day, 4.343 hours/ns, 319.813 timesteps/s
93.3% CPU use with 12 MPI tasks x no OpenMP threads

MPI task timing breakdown:
Section |  min time  |  avg time  |  max time  |%varavg| %total
---------------------------------------------------------------
Pair    | 17.257     | 19.04      | 20.942     |  29.1 | 60.89
Bond    | 0.0033185  | 0.0041984  | 0.0048702  |   0.7 |  0.01
Kspace  | 7.6638     | 9.4807     | 11.24      |  40.6 | 30.32
Neigh   | 0.16677    | 0.16694    | 0.16707    |   0.0 |  0.53
Comm    | 1.2632     | 1.3359     | 1.3837     |   2.6 |  4.27
Output  | 6.5126e-05 | 8.1139e-05 | 0.0002386  |   0.0 |  0.00
Modify  | 1.0562     | 1.0683     | 1.0868     |   0.9 |  3.42
Other   |            | 0.1723     |            |       |  0.55

Nlocal:            134 ave         148 max         126 min
Histogram: 3 1 1 1 2 3 0 0 0 1
Nghost:        4297.17 ave        4359 max        4237 min
Histogram: 1 0 2 1 2 2 1 2 0 1
Neighs:        49927.3 ave       55609 max       44820 min
Histogram: 1 1 1 3 2 0 1 1 1 1

Total # of neighbors = 599128
Ave neighs/atom = 372.59204
Ave special neighs/atom = 1.8656716
Neighbor list builds = 79
Dangerous builds = 0
PPPM initialization ...
  extracting TIP4P info from pair style
  using 12-bit tables for long-range coulomb (../kspace.cpp:342)
  G vector (1/distance) = 0.31041208
  grid = 24 24 24
  stencil order = 5
  estimated absolute RMS force accuracy = 0.0037564192
  estimated relative force accuracy = 1.1312345e-05
  using double precision KISS FFT
  3d grid and FFT values/proc = 5415 1152
Generated 0 of 6 mixed pair_coeff terms from arithmetic mixing rule
Setting up Verlet run ...
  Unit style    : real
  Current step  : 5040000
  Time step     : 0.5
Per MPI rank memory allocation (min/avg/max) = 8.661 | 8.667 | 8.67 Mbytes
   Step        Density          Temp          Press          TotEng    
   5040000   1.1143043      300.01341      79.940463     -13948.095    
   5050000   1.1143043      291.34752     -417.62801     -13993.629    
Loop time of 31.2059 on 12 procs for 10000 steps with 1608 atoms

Performance: 13.844 ns/day, 1.734 hours/ns, 320.452 timesteps/s
94.0% CPU use with 12 MPI tasks x no OpenMP threads

MPI task timing breakdown:
Section |  min time  |  avg time  |  max time  |%varavg| %total
---------------------------------------------------------------
Pair    | 17.592     | 19.228     | 20.843     |  21.5 | 61.62
Bond    | 0.003329   | 0.0042217  | 0.0048647  |   0.6 |  0.01
Kspace  | 7.4113     | 8.9512     | 10.567     |  31.1 | 28.68
Neigh   | 0.42116    | 0.42142    | 0.42177    |   0.0 |  1.35
Comm    | 1.2873     | 1.3482     | 1.3754     |   2.2 |  4.32
Output  | 6.2412e-05 | 7.8871e-05 | 0.00024797 |   0.0 |  0.00
Modify  | 1.0686     | 1.079      | 1.092      |   0.7 |  3.46
Other   |            | 0.1735     |            |       |  0.56

Nlocal:            134 ave         149 max         118 min
Histogram: 2 0 1 0 2 1 3 2 0 1
Nghost:           4306 ave        4344 max        4289 min
Histogram: 3 2 1 1 4 0 0 0 0 1
Neighs:        49938.2 ave       55919 max       43849 min
Histogram: 1 0 1 2 3 0 2 2 0 1

Total # of neighbors = 599259
Ave neighs/atom = 372.67351
Ave special neighs/atom = 1.8656716
Neighbor list builds = 203
Dangerous builds = 0
PPPM initialization ...
  extracting TIP4P info from pair style
  using 12-bit tables for long-range coulomb (../kspace.cpp:342)
  G vector (1/distance) = 0.31041208
  grid = 24 24 24
  stencil order = 5
  estimated absolute RMS force accuracy = 0.0037564192
  estimated relative force accuracy = 1.1312345e-05
  using double precision KISS FFT
  3d grid and FFT values/proc = 5415 1152
Generated 0 of 6 mixed pair_coeff terms from arithmetic mixing rule
Setting up Verlet run ...
  Unit style    : real
  Current step  : 5050000
  Time step     : 2
Per MPI rank memory allocation (min/avg/max) = 8.661 | 8.667 | 8.67 Mbytes
   Step        Density          Temp          Press          TotEng    
   5050000   1.1143043      291.34752     -429.62041     -13993.629    
   5100000   1.1143043      292.22692     -697.96359     -13947.953    
   5200000   1.1143043      287.21347     -34.108917     -13975.334    
   5300000   1.1143043      296.45865      164.76088     -13958.944    
   5400000   1.1143043      295.95664      373.33798     -13935.051    
   5500000   1.1143043      297.24777     -933.21661     -13944.629    
   5600000   1.1143043      300.25402      374.55882     -13894.058    
   5700000   1.1143043      294.43459     -879.15271     -13947.865    
   5800000   1.1143043      295.7078      -594.93113     -13946.335    
   5900000   1.1143043      304.29965      88.18569      -13927.226    
   6000000   1.1143043      296.50677     -675.89081     -13885.108    
   6100000   1.1143043      298.70936      360.7908      -13889.101    
   6200000   1.1143043      292.08459     -149.21743     -13900.723    
   6300000   1.1143043      309.25406     -525.17425     -13869.363    
   6400000   1.1143043      309.45587     -122.99666     -13932.295    
   6500000   1.1143043      307.13593     -253.29226     -13872.461    
   6600000   1.1143043      297.37203     -379.15902     -13931.652    
   6700000   1.1143043      292.2442      -11.369815     -13887.966    
   6800000   1.1143043      296.58335      977.22507     -13925.384    
   6900000   1.1143043      303.89148      521.09256     -13882.423    
   7000000   1.1143043      305.623        440.06625     -13880.999    
   7100000   1.1143043      300.46745     -364.20147     -13869.102    
   7200000   1.1143043      294.06722     -295.04545     -13933.033    
   7300000   1.1143043      289.01109      628.02107     -13941.406    
   7400000   1.1143043      302.16811      277.91116     -13843.108    
   7500000   1.1143043      303.53837      1005.5714     -13838.263    
   7550000   1.1143043      290.61267     -387.93649     -13897.403    
Loop time of 8330 on 12 procs for 2500000 steps with 1608 atoms

Performance: 51.861 ns/day, 0.463 hours/ns, 300.120 timesteps/s
93.9% CPU use with 12 MPI tasks x no OpenMP threads

MPI task timing breakdown:
Section |  min time  |  avg time  |  max time  |%varavg| %total
---------------------------------------------------------------
Pair    | 4542.6     | 4895.3     | 5194.7     | 316.3 | 58.77
Bond    | 0.86006    | 1.0489     | 1.193      |  10.3 |  0.01
Kspace  | 2018.3     | 2319.8     | 2674.2     | 462.4 | 27.85
Neigh   | 421.97     | 422.2      | 422.51     |   0.8 |  5.07
Comm    | 362.04     | 366.81     | 370.1      |  12.2 |  4.40
Output  | 0.1112     | 0.11149    | 0.1144     |   0.3 |  0.00
Modify  | 278.78     | 280.6      | 282.77     |   7.2 |  3.37
Other   |            | 44.13      |            |       |  0.53

Nlocal:            134 ave         141 max         126 min
Histogram: 1 1 0 3 2 0 1 0 2 2
Nghost:        4312.33 ave        4342 max        4276 min
Histogram: 2 0 1 1 1 1 1 1 2 2
Neighs:        49922.7 ave       52825 max       46181 min
Histogram: 1 0 1 3 0 1 1 2 1 2

Total # of neighbors = 599072
Ave neighs/atom = 372.55721
Ave special neighs/atom = 1.8656716
Neighbor list builds = 198928
Dangerous builds = 0

CITE-CITE-CITE-CITE-CITE-CITE-CITE-CITE-CITE-CITE-CITE-CITE-CITE

Your simulation uses code contributions which should be cited:
- fix ave/ordern command:
The log file lists these citations in BibTeX format.

CITE-CITE-CITE-CITE-CITE-CITE-CITE-CITE-CITE-CITE-CITE-CITE-CITE

PPPM initialization ...
  extracting TIP4P info from pair style
  using 12-bit tables for long-range coulomb (../kspace.cpp:342)
  G vector (1/distance) = 0.31041208
  grid = 24 24 24
  stencil order = 5
  estimated absolute RMS force accuracy = 0.0037564192
  estimated relative force accuracy = 1.1312345e-05
  using double precision KISS FFT
  3d grid and FFT values/proc = 5415 1152
Generated 0 of 6 mixed pair_coeff terms from arithmetic mixing rule
Setting up Verlet run ...
  Unit style    : real
  Current step  : 0
  Time step     : 2
Per MPI rank memory allocation (min/avg/max) = 14.4 | 14.41 | 14.41 Mbytes
   Step        Density          Temp          Press          TotEng    
         0   1.1143043      290.61267     -388.28018     -13897.403    
    100000   1.1143043      304.06004     -442.09201     -13862.358    
    200000   1.1143043      293.29147      761.66153     -13955.792    
    250000   1.1143043      300.67313      1177.4183     -13926.225    
Loop time of 1305.49 on 12 procs for 250000 steps with 1608 atoms

Performance: 33.091 ns/day, 0.725 hours/ns, 191.500 timesteps/s
93.9% CPU use with 12 MPI tasks x no OpenMP threads

MPI task timing breakdown:
Section |  min time  |  avg time  |  max time  |%varavg| %total
---------------------------------------------------------------
Pair    | 736.14     | 795.48     | 839.35     | 131.4 | 60.93
Bond    | 3.3985     | 3.5483     | 3.6417     |   3.5 |  0.27
Kspace  | 301.34     | 345.71     | 405.42     | 200.1 | 26.48
Neigh   | 42.1       | 42.127     | 42.168     |   0.3 |  3.23
Comm    | 37.859     | 38.138     | 38.374     |   3.0 |  2.92
Output  | 0.072669   | 0.073024   | 0.073515   |   0.1 |  0.01
Modify  | 75.208     | 75.331     | 75.435     |   0.8 |  5.77
Other   |            | 5.074      |            |       |  0.39

Nlocal:            134 ave         142 max         124 min
Histogram: 2 0 0 3 0 0 2 2 1 2
Nghost:           4304 ave        4366 max        4208 min
Histogram: 1 0 0 2 1 2 1 1 2 2
Neighs:        49869.2 ave       53696 max       45590 min
Histogram: 3 0 1 1 1 0 1 2 0 3

Total # of neighbors = 598431
Ave neighs/atom = 372.15858
Ave special neighs/atom = 1.8656716
Neighbor list builds = 19850
Dangerous builds = 0
PPPM initialization ...
  extracting TIP4P info from pair style
  using 12-bit tables for long-range coulomb (../kspace.cpp:342)
  G vector (1/distance) = 0.31041208
  grid = 24 24 24
  stencil order = 5
  estimated absolute RMS force accuracy = 0.0037564192
  estimated relative force accuracy = 1.1312345e-05
  using double precision KISS FFT
  3d grid and FFT values/proc = 5415 1152
Generated 0 of 6 mixed pair_coeff terms from arithmetic mixing rule
Setting up Verlet run ...
  Unit style    : real
  Current step  : 250000
  Time step     : 2
Per MPI rank memory allocation (min/avg/max) = 14.4 | 14.41 | 14.41 Mbytes
   Step        Density          Temp          Press          TotEng    
    250000   1.1143043      300.67313      1177.8812     -13926.225    
    300000   1.1143043      298.74539      117.80427     -13888.699    
    400000   1.1143043      292.55619     -64.68669      -13931.809    
    500000   1.1143043      300.71415      95.428212     -13909.804    
Loop time of 1308.63 on 12 procs for 250000 steps with 1608 atoms

Performance: 33.012 ns/day, 0.727 hours/ns, 191.039 timesteps/s
93.7% CPU use with 12 MPI tasks x no OpenMP threads

MPI task timing breakdown:
Section |  min time  |  avg time  |  max time  |%varavg| %total
---------------------------------------------------------------
Pair    | 734.53     | 794.73     | 841.2      | 133.9 | 60.73
Bond    | 3.4049     | 3.5471     | 3.6615     |   3.7 |  0.27
Kspace  | 302.35     | 349.31     | 409.88     | 202.9 | 26.69
Neigh   | 42.282     | 42.303     | 42.335     |   0.3 |  3.23
Comm    | 37.899     | 38.19      | 38.421     |   3.1 |  2.92
Output  | 0.10612    | 0.10673    | 0.10727    |   0.1 |  0.01
Modify  | 75.216     | 75.353     | 75.489     |   0.9 |  5.76
Other   |            | 5.088      |            |       |  0.39

Nlocal:            134 ave         146 max         119 min
Histogram: 1 0 2 1 1 1 2 1 2 1
Nghost:        4294.83 ave        4355 max        4238 min
Histogram: 2 0 0 2 4 0 1 1 1 1
Neighs:        49943.8 ave       57623 max       43311 min
Histogram: 1 2 0 4 1 0 2 0 0 2

Total # of neighbors = 599326
Ave neighs/atom = 372.71517
Ave special neighs/atom = 1.8656716
Neighbor list builds = 19884
Dangerous builds = 0
PPPM initialization ...
  extracting TIP4P info from pair style
  using 12-bit tables for long-range coulomb (../kspace.cpp:342)
  G vector (1/distance) = 0.31041208
  grid = 24 24 24
  stencil order = 5
  estimated absolute RMS force accuracy = 0.0037564192
  estimated relative force accuracy = 1.1312345e-05
  using double precision KISS FFT
  3d grid and FFT values/proc = 5415 1152
Generated 0 of 6 mixed pair_coeff terms from arithmetic mixing rule
Setting up Verlet run ...
  Unit style    : real
  Current step  : 500000
  Time step     : 2
Per MPI rank memory allocation (min/avg/max) = 14.4 | 14.41 | 14.41 Mbytes
   Step        Density          Temp          Press          TotEng    
    500000   1.1143043      300.71415      95.774033     -13909.804    
    600000   1.1143043      302.70596     -863.48604     -13852.314    
    700000   1.1143043      293.9576      -233.40873     -13906.82     
    750000   1.1143043      295.13305      79.29577      -13839.157    
Loop time of 1315.53 on 12 procs for 250000 steps with 1608 atoms

Performance: 32.838 ns/day, 0.731 hours/ns, 190.037 timesteps/s
93.5% CPU use with 12 MPI tasks x no OpenMP threads

MPI task timing breakdown:
Section |  min time  |  avg time  |  max time  |%varavg| %total
---------------------------------------------------------------
Pair    | 742.12     | 796.45     | 869.54     | 138.8 | 60.54
Bond    | 3.3822     | 3.5412     | 3.6864     |   4.1 |  0.27
Kspace  | 281.03     | 354.55     | 409.16     | 209.0 | 26.95
Neigh   | 42.392     | 42.424     | 42.459     |   0.3 |  3.22
Comm    | 37.902     | 38.101     | 38.363     |   2.6 |  2.90
Output  | 0.070884   | 0.071308   | 0.07177    |   0.1 |  0.01
Modify  | 75.157     | 75.282     | 75.398     |   0.8 |  5.72
Other   |            | 5.106      |            |       |  0.39

Nlocal:            134 ave         143 max         127 min
Histogram: 4 1 0 1 1 0 2 0 1 2
Nghost:        4298.33 ave        4337 max        4244 min
Histogram: 1 0 0 2 1 2 3 0 1 2
Neighs:        49932.9 ave       56550 max       45572 min
Histogram: 2 1 1 4 1 1 0 0 1 1

Total # of neighbors = 599195
Ave neighs/atom = 372.63371
Ave special neighs/atom = 1.8656716
Neighbor list builds = 19903
Dangerous builds = 0
PPPM initialization ...
  extracting TIP4P info from pair style
  using 12-bit tables for long-range coulomb (../kspace.cpp:342)
  G vector (1/distance) = 0.31041208
  grid = 24 24 24
  stencil order = 5
  estimated absolute RMS force accuracy = 0.0037564192
  estimated relative force accuracy = 1.1312345e-05
  using double precision KISS FFT
  3d grid and FFT values/proc = 5415 1152
Generated 0 of 6 mixed pair_coeff terms from arithmetic mixing rule
Setting up Verlet run ...
  Unit style    : real
  Current step  : 750000
  Time step     : 2
Per MPI rank memory allocation (min/avg/max) = 14.4 | 14.41 | 14.41 Mbytes
   Step        Density          Temp          Press          TotEng    
    750000   1.1143043      295.13305      79.489856     -13839.157    
    800000   1.1143043      292.96108      263.99376     -13953.175    
    900000   1.1143043      295.91537     -443.46853     -13925.035    
   1000000   1.1143043      294.80612      358.54287     -13951.277    
Loop time of 1313.67 on 12 procs for 250000 steps with 1608 atoms

Performance: 32.885 ns/day, 0.730 hours/ns, 190.307 timesteps/s
93.5% CPU use with 12 MPI tasks x no OpenMP threads

MPI task timing breakdown:
Section |  min time  |  avg time  |  max time  |%varavg| %total
---------------------------------------------------------------
Pair    | 736.57     | 794.65     | 865.68     | 145.0 | 60.49
Bond    | 3.3973     | 3.5374     | 3.6367     |   3.4 |  0.27
Kspace  | 283.1      | 354.63     | 413.08     | 217.9 | 27.00
Neigh   | 42.32      | 42.352     | 42.391     |   0.3 |  3.22
Comm    | 37.928     | 38.142     | 38.354     |   2.8 |  2.90
Output  | 0.10662    | 0.10712    | 0.10732    |   0.1 |  0.01
Modify  | 75.054     | 75.157     | 75.26      |   0.8 |  5.72
Other   |            | 5.093      |            |       |  0.39

Nlocal:            134 ave         147 max         121 min
Histogram: 1 2 2 0 1 1 2 0 1 2
Nghost:        4301.25 ave        4380 max        4217 min
Histogram: 2 0 1 2 1 1 0 3 0 2
Neighs:        49956.1 ave       59292 max       44822 min
Histogram: 3 1 3 0 2 1 0 0 1 1

Total # of neighbors = 599473
Ave neighs/atom = 372.80659
Ave special neighs/atom = 1.8656716
Neighbor list builds = 19892
Dangerous builds = 0
PPPM initialization ...
  extracting TIP4P info from pair style
  using 12-bit tables for long-range coulomb (../kspace.cpp:342)
  G vector (1/distance) = 0.31041208
  grid = 24 24 24
  stencil order = 5
  estimated absolute RMS force accuracy = 0.0037564192
  estimated relative force accuracy = 1.1312345e-05
  using double precision KISS FFT
  3d grid and FFT values/proc = 5415 1152
Generated 0 of 6 mixed pair_coeff terms from arithmetic mixing rule
Setting up Verlet run ...
  Unit style    : real
  Current step  : 1000000
  Time step     : 2
Per MPI rank memory allocation (min/avg/max) = 14.4 | 14.41 | 14.41 Mbytes
   Step        Density          Temp          Press          TotEng    
   1000000   1.1143043      294.80612      357.91403     -13951.277    
   1100000   1.1143043      303.8979      -143.65294     -13904.915    
   1200000   1.1143043      297.86617      615.9579      -13955.758    
   1250000   1.1143043      301.68457     -289.43352     -13914.79     
Loop time of 1311.01 on 12 procs for 250000 steps with 1608 atoms

Performance: 32.952 ns/day, 0.728 hours/ns, 190.692 timesteps/s
93.7% CPU use with 12 MPI tasks x no OpenMP threads

MPI task timing breakdown:
Section |  min time  |  avg time  |  max time  |%varavg| %total
---------------------------------------------------------------
Pair    | 737.77     | 796.28     | 857.89     | 139.9 | 60.74
Bond    | 3.404      | 3.5384     | 3.636      |   3.1 |  0.27
Kspace  | 288.36     | 350.5      | 409.32     | 211.8 | 26.73
Neigh   | 42.225     | 42.252     | 42.287     |   0.3 |  3.22
Comm    | 37.862     | 38.116     | 38.337     |   2.7 |  2.91
Output  | 0.071244   | 0.071621   | 0.072483   |   0.1 |  0.01
Modify  | 75.075     | 75.16      | 75.276     |   0.7 |  5.73
Other   |            | 5.098      |            |       |  0.39

Nlocal:            134 ave         146 max         122 min
Histogram: 2 0 0 3 1 2 0 2 1 1
Nghost:        4297.75 ave        4366 max        4234 min
Histogram: 4 0 0 0 2 0 1 3 0 2
Neighs:        49979.5 ave       57833 max       42954 min
Histogram: 2 1 0 1 2 2 1 2 0 1

Total # of neighbors = 599754
Ave neighs/atom = 372.98134
Ave special neighs/atom = 1.8656716
Neighbor list builds = 19868
Dangerous builds = 0
PPPM initialization ...
  extracting TIP4P info from pair style
  using 12-bit tables for long-range coulomb (../kspace.cpp:342)
  G vector (1/distance) = 0.31041208
  grid = 24 24 24
  stencil order = 5
  estimated absolute RMS force accuracy = 0.0037564192
  estimated relative force accuracy = 1.1312345e-05
  using double precision KISS FFT
  3d grid and FFT values/proc = 5415 1152
Generated 0 of 6 mixed pair_coeff terms from arithmetic mixing rule
Setting up Verlet run ...
  Unit style    : real
  Current step  : 1250000
  Time step     : 2
Per MPI rank memory allocation (min/avg/max) = 14.4 | 14.41 | 14.41 Mbytes
   Step        Density          Temp          Press          TotEng    
   1250000   1.1143043      301.68457     -289.69166     -13914.79     
   1300000   1.1143043      286.42462      116.23588     -13888.469    
   1400000   1.1143043      294.37381      957.53801     -13913.196    
   1500000   1.1143043      294.17694     -677.00209     -13931.565    
Loop time of 1305.46 on 12 procs for 250000 steps with 1608 atoms

Performance: 33.092 ns/day, 0.725 hours/ns, 191.504 timesteps/s
93.8% CPU use with 12 MPI tasks x no OpenMP threads

MPI task timing breakdown:
Section |  min time  |  avg time  |  max time  |%varavg| %total
---------------------------------------------------------------
Pair    | 733.65     | 793.58     | 847.36     | 136.5 | 60.79
Bond    | 3.4045     | 3.5381     | 3.6204     |   3.0 |  0.27
Kspace  | 293.87     | 347.74     | 408.01     | 207.1 | 26.64
Neigh   | 42.194     | 42.218     | 42.251     |   0.3 |  3.23
Comm    | 37.889     | 38.133     | 38.358     |   2.7 |  2.92
Output  | 0.10643    | 0.10685    | 0.10717    |   0.1 |  0.01
Modify  | 74.983     | 75.067     | 75.171     |   0.8 |  5.75
Other   |            | 5.071      |            |       |  0.39

Nlocal:            134 ave         144 max         117 min
Histogram: 1 0 0 0 2 3 0 2 3 1
Nghost:        4312.58 ave        4353 max        4259 min
Histogram: 1 1 1 1 0 1 2 3 0 2
Neighs:        49934.9 ave       56415 max       43599 min
Histogram: 1 1 0 0 4 4 0 1 0 1

Total # of neighbors = 599219
Ave neighs/atom = 372.64863
Ave special neighs/atom = 1.8656716
Neighbor list builds = 19880
Dangerous builds = 0
PPPM initialization ...
  extracting TIP4P info from pair style
  using 12-bit tables for long-range coulomb (../kspace.cpp:342)
  G vector (1/distance) = 0.31041208
  grid = 24 24 24
  stencil order = 5
  estimated absolute RMS force accuracy = 0.0037564192
  estimated relative force accuracy = 1.1312345e-05
  using double precision KISS FFT
  3d grid and FFT values/proc = 5415 1152
Generated 0 of 6 mixed pair_coeff terms from arithmetic mixing rule
Setting up Verlet run ...
  Unit style    : real
  Current step  : 1500000
  Time step     : 2
Per MPI rank memory allocation (min/avg/max) = 14.4 | 14.41 | 14.41 Mbytes
   Step        Density          Temp          Press          TotEng    
   1500000   1.1143043      294.17694     -677.48064     -13931.565    
   1600000   1.1143043      295.26974     -398.94441     -13982.629    
   1700000   1.1143043      305.65304     -557.62915     -13840.269    
   1750000   1.1143043      301.34482      731.68922     -13859.675    
Loop time of 1304.68 on 12 procs for 250000 steps with 1608 atoms

Performance: 33.111 ns/day, 0.725 hours/ns, 191.617 timesteps/s
93.9% CPU use with 12 MPI tasks x no OpenMP threads

MPI task timing breakdown:
Section |  min time  |  avg time  |  max time  |%varavg| %total
---------------------------------------------------------------
Pair    | 736.54     | 795.95     | 855.98     | 128.2 | 61.01
Bond    | 3.3934     | 3.5535     | 3.6529     |   3.6 |  0.27
Kspace  | 284.06     | 344.59     | 404.37     | 195.8 | 26.41
Neigh   | 42.17      | 42.197     | 42.236     |   0.3 |  3.23
Comm    | 37.868     | 38.113     | 38.32      |   2.7 |  2.92
Output  | 0.071047   | 0.071341   | 0.071867   |   0.1 |  0.01
Modify  | 75.005     | 75.131     | 75.267     |   0.9 |  5.76
Other   |            | 5.081      |            |       |  0.39

Nlocal:            134 ave         145 max         120 min
Histogram: 1 1 1 0 1 1 2 3 1 1
Nghost:        4278.33 ave        4337 max        4202 min
Histogram: 1 0 0 2 2 2 1 2 1 1
Neighs:        49950.5 ave       57366 max       43238 min
Histogram: 1 0 1 2 5 1 0 0 1 1

Total # of neighbors = 599406
Ave neighs/atom = 372.76493
Ave special neighs/atom = 1.8656716
Neighbor list builds = 19908
Dangerous builds = 0
PPPM initialization ...
  extracting TIP4P info from pair style
  using 12-bit tables for long-range coulomb (../kspace.cpp:342)
  G vector (1/distance) = 0.31041208
  grid = 24 24 24
  stencil order = 5
  estimated absolute RMS force accuracy = 0.0037564192
  estimated relative force accuracy = 1.1312345e-05
  using double precision KISS FFT
  3d grid and FFT values/proc = 5415 1152
Generated 0 of 6 mixed pair_coeff terms from arithmetic mixing rule
Setting up Verlet run ...
  Unit style    : real
  Current step  : 1750000
  Time step     : 2
Per MPI rank memory allocation (min/avg/max) = 14.4 | 14.41 | 14.41 Mbytes
   Step        Density          Temp          Press          TotEng    
   1750000   1.1143043      301.34482      732.06094     -13859.675    
   1800000   1.1143043      304.20247     -355.61431     -13877.498    
   1900000   1.1143043      283.7947       618.9057      -14001.341    
   2000000   1.1143043      298.99976     -1116.3553     -13987.48     
Loop time of 1311.35 on 12 procs for 250000 steps with 1608 atoms

Performance: 32.943 ns/day, 0.729 hours/ns, 190.643 timesteps/s
93.6% CPU use with 12 MPI tasks x no OpenMP threads

MPI task timing breakdown:
Section |  min time  |  avg time  |  max time  |%varavg| %total
---------------------------------------------------------------
Pair    | 732.5      | 794.22     | 859.29     | 147.4 | 60.57
Bond    | 3.3951     | 3.5354     | 3.5966     |   2.9 |  0.27
Kspace  | 287.04     | 352.61     | 414.71     | 222.2 | 26.89
Neigh   | 42.442     | 42.472     | 42.504     |   0.3 |  3.24
Comm    | 37.934     | 38.159     | 38.415     |   3.0 |  2.91
Output  | 0.10665    | 0.10689    | 0.1072     |   0.1 |  0.01
Modify  | 75.015     | 75.139     | 75.268     |   0.9 |  5.73
Other   |            | 5.107      |            |       |  0.39

Nlocal:            134 ave         142 max         123 min
Histogram: 1 0 0 1 2 2 2 3 0 1
Nghost:        4313.17 ave        4392 max        4232 min
Histogram: 1 0 2 1 1 4 0 1 1 1
Neighs:        49950.5 ave       55217 max       45115 min
Histogram: 2 1 1 2 1 0 1 1 2 1

Total # of neighbors = 599406
Ave neighs/atom = 372.76493
Ave special neighs/atom = 1.8656716
Neighbor list builds = 19918
Dangerous builds = 0
PPPM initialization ...
  extracting TIP4P info from pair style
  using 12-bit tables for long-range coulomb (../kspace.cpp:342)
  G vector (1/distance) = 0.31041208
  grid = 24 24 24
  stencil order = 5
  estimated absolute RMS force accuracy = 0.0037564192
  estimated relative force accuracy = 1.1312345e-05
  using double precision KISS FFT
  3d grid and FFT values/proc = 5415 1152
Generated 0 of 6 mixed pair_coeff terms from arithmetic mixing rule
Setting up Verlet run ...
  Unit style    : real
  Current step  : 2000000
  Time step     : 2
Per MPI rank memory allocation (min/avg/max) = 14.4 | 14.41 | 14.41 Mbytes
   Step        Density          Temp          Press          TotEng    
   2000000   1.1143043      298.99976     -1115.9527     -13987.48     
   2100000   1.1143043      295.27402     -709.02205     -13965.199    
   2200000   1.1143043      296.0819       502.03922     -13929.757    
   2300000   1.1143043      303.32143      298.55579     -13905.529    
   2400000   1.1143043      303.86173     -2331.5764     -13860.618    
   2500000   1.1143043      301.68034     -290.23098     -13821.007    
   2600000   1.1143043      292.90656      1286.8475     -13884.97     
   2700000   1.1143043      286.59556      633.16633     -13904.109    
   2800000   1.1143043      297.85617      807.43722     -13866.132    
   2900000   1.1143043      304.73219      372.04764     -13885.584    
   3000000   1.1143043      298.79428     -189.36424     -13837.845    
Loop time of 5244.63 on 12 procs for 1000000 steps with 1608 atoms

Performance: 32.948 ns/day, 0.728 hours/ns, 190.671 timesteps/s
93.6% CPU use with 12 MPI tasks x no OpenMP threads

MPI task timing breakdown:
Section |  min time  |  avg time  |  max time  |%varavg| %total
---------------------------------------------------------------
Pair    | 2937.4     | 3179.2     | 3398.5     | 288.3 | 60.62
Bond    | 13.617     | 14.137     | 14.498     |   6.0 |  0.27
Kspace  | 1186.8     | 1408.1     | 1651.5     | 435.0 | 26.85
Neigh   | 169.27     | 169.37     | 169.5      |   0.5 |  3.23
Comm    | 151.93     | 152.81     | 153.88     |   5.8 |  2.91
Output  | 0.35511    | 0.35598    | 0.35697    |   0.1 |  0.01
Modify  | 299.86     | 300.29     | 300.74     |   1.6 |  5.73
Other   |            | 20.31      |            |       |  0.39

Nlocal:            134 ave         146 max         124 min
Histogram: 2 2 1 2 0 1 0 1 1 2
Nghost:        4309.67 ave        4348 max        4245 min
Histogram: 1 0 0 1 1 2 2 2 1 2
Neighs:        49945.2 ave       55971 max       44663 min
Histogram: 2 2 1 0 1 1 2 1 0 2

Total # of neighbors = 599342
Ave neighs/atom = 372.72512
Ave special neighs/atom = 1.8656716
Neighbor list builds = 79621
Dangerous builds = 0
PPPM initialization ...
  extracting TIP4P info from pair style
  using 12-bit tables for long-range coulomb (../kspace.cpp:342)
  G vector (1/distance) = 0.31041208
  grid = 24 24 24
  stencil order = 5
  estimated absolute RMS force accuracy = 0.0037564192
  estimated relative force accuracy = 1.1312345e-05
  using double precision KISS FFT
  3d grid and FFT values/proc = 5415 1152
Generated 0 of 6 mixed pair_coeff terms from arithmetic mixing rule
Setting up Verlet run ...
  Unit style    : real
  Current step  : 3000000
  Time step     : 2
Per MPI rank memory allocation (min/avg/max) = 14.4 | 14.41 | 14.41 Mbytes
   Step        Density          Temp          Press          TotEng    
   3000000   1.1143043      298.79428     -189.56659     -13837.845    
   3100000   1.1143043      287.56893      19.340432     -13937.726    
   3200000   1.1143043      298.91362     -919.84738     -13914.212    
   3300000   1.1143043      294.48584     -215.19943     -13869.851    
   3400000   1.1143043      307.55462      404.34153     -13845.326    
   3500000   1.1143043      310.97162      1149.08       -13887.876    
   3600000   1.1143043      291.80556     -989.0295      -14085.221    
   3700000   1.1143043      309.63434     -451.19518     -13854.874    
   3800000   1.1143043      296.51899      67.48304      -13849.461    
   3900000   1.1143043      296.64343     -23.799888     -13942.46     
   4000000   1.1143043      303.31248      450.18926     -13868.199    
Loop time of 5234.04 on 12 procs for 1000000 steps with 1608 atoms

Performance: 33.015 ns/day, 0.727 hours/ns, 191.057 timesteps/s
93.8% CPU use with 12 MPI tasks x no OpenMP threads

MPI task timing breakdown:
Section |  min time  |  avg time  |  max time  |%varavg| %total
---------------------------------------------------------------
Pair    | 2924.3     | 3181.2     | 3407.4     | 276.3 | 60.78
Bond    | 13.618     | 14.189     | 14.582     |   7.0 |  0.27
Kspace  | 1167.3     | 1395.6     | 1654       | 418.9 | 26.66
Neigh   | 168.99     | 169.08     | 169.22     |   0.6 |  3.23
Comm    | 151.8      | 152.66     | 153.64     |   5.6 |  2.92
Output  | 0.35489    | 0.35548    | 0.35715    |   0.1 |  0.01
Modify  | 300.24     | 300.62     | 301.08     |   1.6 |  5.74
Other   |            | 20.31      |            |       |  0.39

Nlocal:            134 ave         144 max         127 min
Histogram: 4 0 1 1 1 1 1 1 1 1
Nghost:        4287.92 ave        4322 max        4261 min
Histogram: 1 1 3 1 1 1 2 0 1 1
Neighs:        49938.9 ave       56711 max       43707 min
Histogram: 2 0 2 1 1 3 0 1 0 2

Total # of neighbors = 599267
Ave neighs/atom = 372.67848
Ave special neighs/atom = 1.8656716
Neighbor list builds = 79603
Dangerous builds = 0
PPPM initialization ...
  extracting TIP4P info from pair style
  using 12-bit tables for long-range coulomb (../kspace.cpp:342)
  G vector (1/distance) = 0.31041208
  grid = 24 24 24
  stencil order = 5
  estimated absolute RMS force accuracy = 0.0037564192
  estimated relative force accuracy = 1.1312345e-05
  using double precision KISS FFT
  3d grid and FFT values/proc = 5415 1152
Generated 0 of 6 mixed pair_coeff terms from arithmetic mixing rule
Setting up Verlet run ...
  Unit style    : real
  Current step  : 4000000
  Time step     : 2
Per MPI rank memory allocation (min/avg/max) = 14.4 | 14.41 | 14.41 Mbytes
   Step        Density          Temp          Press          TotEng    
   4000000   1.1143043      303.31248      449.49081     -13868.199    
   4100000   1.1143043      299.54504      388.38876     -13952.755    
   4200000   1.1143043      301.9792       320.59603     -13920.545    
   4300000   1.1143043      302.20258     -273.56645     -13830.45     
   4400000   1.1143043      302.36558     -925.29506     -13940.265    
   4500000   1.1143043      296.47671      32.921464     -13934.238    
   4600000   1.1143043      310.68208      106.31022     -13920.863    
   4700000   1.1143043      291.99793     -359.41647     -13941.216    
   4800000   1.1143043      295.76355      351.96662     -13924.147    
   4900000   1.1143043      309.14003      688.29259     -13928.538    
   5000000   1.1143043      316.4563       201.96679     -13892.987    
Loop time of 5238.8 on 12 procs for 1000000 steps with 1608 atoms

Performance: 32.985 ns/day, 0.728 hours/ns, 190.883 timesteps/s
93.7% CPU use with 12 MPI tasks x no OpenMP threads

MPI task timing breakdown:
Section |  min time  |  avg time  |  max time  |%varavg| %total
---------------------------------------------------------------
Pair    | 2925.8     | 3180.9     | 3414.7     | 275.9 | 60.72
Bond    | 13.604     | 14.146     | 14.551     |   6.5 |  0.27
Kspace  | 1165.1     | 1401.1     | 1657.6     | 417.5 | 26.74
Neigh   | 168.92     | 169        | 169.12     |   0.5 |  3.23
Comm    | 151.61     | 152.56     | 153.49     |   5.5 |  2.91
Output  | 0.3555     | 0.35669    | 0.35813    |   0.1 |  0.01
Modify  | 299.98     | 300.4      | 300.85     |   1.6 |  5.73
Other   |            | 20.36      |            |       |  0.39

Nlocal:            134 ave         141 max         128 min
Histogram: 3 0 0 2 0 2 3 1 0 1
Nghost:        4291.42 ave        4339 max        4232 min
Histogram: 1 1 1 1 1 1 0 3 2 1
Neighs:        49905.3 ave       55326 max       44075 min
Histogram: 1 0 1 1 3 1 3 0 1 1

Total # of neighbors = 598864
Ave neighs/atom = 372.42786
Ave special neighs/atom = 1.8656716
Neighbor list builds = 79550
Dangerous builds = 0
PPPM initialization ...
  extracting TIP4P info from pair style
  using 12-bit tables for long-range coulomb (../kspace.cpp:342)
  G vector (1/distance) = 0.31041208
  grid = 24 24 24
  stencil order = 5
  estimated absolute RMS force accuracy = 0.0037564192
  estimated relative force accuracy = 1.1312345e-05
  using double precision KISS FFT
  3d grid and FFT values/proc = 5415 1152
Generated 0 of 6 mixed pair_coeff terms from arithmetic mixing rule
Setting up Verlet run ...
  Unit style    : real
  Current step  : 5000000
  Time step     : 2
Per MPI rank memory allocation (min/avg/max) = 14.4 | 14.41 | 14.41 Mbytes
   Step        Density          Temp          Press          TotEng    
   5000000   1.1143043      316.4563       201.59558     -13892.987    
   5100000   1.1143043      290.20855     -160.01909     -13931.482    
   5200000   1.1143043      293.30248     -6.6853499     -13979.604    
   5300000   1.1143043      303.2779       994.16352     -13884.869    
   5400000   1.1143043      284.49018      950.32902     -13882.507    
   5500000   1.1143043      300.47399      37.474749     -13867.733    
   5600000   1.1143043      311.12456      217.60564     -13903.083    
   5700000   1.1143043      306.49727      275.01247     -13915.292    
   5800000   1.1143043      307.53154     -450.57697     -13845.078    
   5900000   1.1143043      291.70869      1294.0176     -13932.431    
   6000000   1.1143043      302.22448     -215.72491     -13893.553    
Loop time of 5236.48 on 12 procs for 1000000 steps with 1608 atoms

Performance: 32.999 ns/day, 0.727 hours/ns, 190.968 timesteps/s
93.7% CPU use with 12 MPI tasks x no OpenMP threads

MPI task timing breakdown:
Section |  min time  |  avg time  |  max time  |%varavg| %total
---------------------------------------------------------------
Pair    | 2953.9     | 3180.4     | 3429.5     | 273.2 | 60.73
Bond    | 13.674     | 14.2       | 14.594     |   6.2 |  0.27
Kspace  | 1148.1     | 1399.2     | 1625.8     | 413.6 | 26.72
Neigh   | 169.09     | 169.21     | 169.33     |   0.5 |  3.23
Comm    | 151.67     | 152.57     | 153.45     |   5.4 |  2.91
Output  | 0.35501    | 0.35588    | 0.35786    |   0.1 |  0.01
Modify  | 299.91     | 300.31     | 300.76     |   1.6 |  5.73
Other   |            | 20.28      |            |       |  0.39

Nlocal:            134 ave         140 max         120 min
Histogram: 1 0 0 0 1 1 1 2 2 4
Nghost:        4312.17 ave        4346 max        4271 min
Histogram: 2 0 1 1 1 2 0 2 0 3
Neighs:          49920 ave       54896 max       43612 min
Histogram: 1 0 2 3 0 0 1 1 1 3

Total # of neighbors = 599040
Ave neighs/atom = 372.53731
Ave special neighs/atom = 1.8656716
Neighbor list builds = 79585
Dangerous builds = 0
PPPM initialization ...
  extracting TIP4P info from pair style
  using 12-bit tables for long-range coulomb (../kspace.cpp:342)
  G vector (1/distance) = 0.31041208
  grid = 24 24 24
  stencil order = 5
  estimated absolute RMS force accuracy = 0.0037564192
  estimated relative force accuracy = 1.1312345e-05
  using double precision KISS FFT
  3d grid and FFT values/proc = 5415 1152
Generated 0 of 6 mixed pair_coeff terms from arithmetic mixing rule
Setting up Verlet run ...
  Unit style    : real
  Current step  : 6000000
  Time step     : 2
Per MPI rank memory allocation (min/avg/max) = 14.4 | 14.41 | 14.41 Mbytes
   Step        Density          Temp          Press          TotEng    
   6000000   1.1143043      302.22448     -216.25522     -13893.553    
   6100000   1.1143043      295.0572       285.24136     -13941.608    
   6200000   1.1143043      301.16555      913.87864     -13871.819    
   6300000   1.1143043      298.83065      322.17571     -13953.352    
   6400000   1.1143043      288.88557     -527.61457     -13942.928    
   6500000   1.1143043      295.24802      35.535487     -13894.656    
   6600000   1.1143043      305.05174     -206.36283     -13813.303    
   6700000   1.1143043      293.23392     -599.56557     -13927.122    
   6800000   1.1143043      301.36652      1455.0413     -13925.827    
   6900000   1.1143043      317.84884     -419.76106     -13882.54     
   7000000   1.1143043      296.55259     -126.06123     -13931.262    
Loop time of 5231.6 on 12 procs for 1000000 steps with 1608 atoms

Performance: 33.030 ns/day, 0.727 hours/ns, 191.146 timesteps/s
93.8% CPU use with 12 MPI tasks x no OpenMP threads

MPI task timing breakdown:
Section |  min time  |  avg time  |  max time  |%varavg| %total
---------------------------------------------------------------
Pair    | 2926.7     | 3184.1     | 3397.1     | 269.0 | 60.86
Bond    | 13.554     | 14.143     | 14.513     |   6.9 |  0.27
Kspace  | 1175.4     | 1390.5     | 1649.6     | 409.1 | 26.58
Neigh   | 169.25     | 169.34     | 169.48     |   0.5 |  3.24
Comm    | 151.62     | 152.66     | 153.65     |   6.2 |  2.92
Output  | 0.35508    | 0.35634    | 0.35871    |   0.2 |  0.01
Modify  | 299.67     | 300.13     | 300.61     |   1.7 |  5.74
Other   |            | 20.36      |            |       |  0.39

Nlocal:            134 ave         148 max         121 min
Histogram: 1 1 1 0 2 5 1 0 0 1
Nghost:        4278.92 ave        4319 max        4236 min
Histogram: 1 1 1 2 1 0 3 1 0 2
Neighs:        49889.1 ave       54394 max       44032 min
Histogram: 3 0 0 1 0 1 3 0 2 2

Total # of neighbors = 598669
Ave neighs/atom = 372.30659
Ave special neighs/atom = 1.8656716
Neighbor list builds = 79667
Dangerous builds = 0
PPPM initialization ...
  extracting TIP4P info from pair style
  using 12-bit tables for long-range coulomb (../kspace.cpp:342)
  G vector (1/distance) = 0.31041208
  grid = 24 24 24
  stencil order = 5
  estimated absolute RMS force accuracy = 0.0037564192
  estimated relative force accuracy = 1.1312345e-05
  using double precision KISS FFT
  3d grid and FFT values/proc = 5415 1152
Generated 0 of 6 mixed pair_coeff terms from arithmetic mixing rule
Setting up Verlet run ...
  Unit style    : real
  Current step  : 7000000
  Time step     : 2
Per MPI rank memory allocation (min/avg/max) = 14.4 | 14.41 | 14.41 Mbytes
   Step        Density          Temp          Press          TotEng    
   7000000   1.1143043      296.55259     -125.84193     -13931.262    
   7100000   1.1143043      299.30288     -392.95827     -13928.684    
   7200000   1.1143043      304.29783      203.33248     -13874.273    
   7300000   1.1143043      293.7826      -717.12265     -13931.539    
   7400000   1.1143043      320.14125      385.05675     -13829.955    
   7500000   1.1143043      297.01941      533.74668     -13849.618    
   7600000   1.1143043      287.29903     -66.202954     -13998.073    
   7700000   1.1143043      298.48543     -391.62712     -13955.193    
   7800000   1.1143043      287.59894     -1092.2418     -13935.027    
   7900000   1.1143043      303.97736     -428.63974     -13827.467    
   8000000   1.1143043      304.10632     -788.30404     -13894.802    
Loop time of 5246.22 on 12 procs for 1000000 steps with 1608 atoms

Performance: 32.938 ns/day, 0.729 hours/ns, 190.614 timesteps/s
93.8% CPU use with 12 MPI tasks x no OpenMP threads

MPI task timing breakdown:
Section |  min time  |  avg time  |  max time  |%varavg| %total
---------------------------------------------------------------
Pair    | 2966.2     | 3193.6     | 3425.3     | 269.2 | 60.87
Bond    | 13.694     | 14.167     | 14.495     |   6.2 |  0.27
Kspace  | 1161.8     | 1395.7     | 1624       | 409.1 | 26.60
Neigh   | 168.87     | 168.97     | 169.1      |   0.5 |  3.22
Comm    | 151.63     | 152.69     | 153.81     |   6.5 |  2.91
Output  | 0.35511    | 0.35637    | 0.35823    |   0.1 |  0.01
Modify  | 299.95     | 300.4      | 301.02     |   1.9 |  5.73
Other   |            | 20.41      |            |       |  0.39

Nlocal:            134 ave         141 max         123 min
Histogram: 1 0 1 1 0 1 3 2 1 2
Nghost:         4307.5 ave        4349 max        4253 min
Histogram: 1 0 0 4 1 0 1 2 2 1
Neighs:          49914 ave       55149 max       42611 min
Histogram: 1 0 2 1 0 3 0 1 1 3

Total # of neighbors = 598968
Ave neighs/atom = 372.49254
Ave special neighs/atom = 1.8656716
Neighbor list builds = 79542
Dangerous builds = 0
PPPM initialization ...
  extracting TIP4P info from pair style
  using 12-bit tables for long-range coulomb (../kspace.cpp:342)
  G vector (1/distance) = 0.31041208
  grid = 24 24 24
  stencil order = 5
  estimated absolute RMS force accuracy = 0.0037564192
  estimated relative force accuracy = 1.1312345e-05
  using double precision KISS FFT
  3d grid and FFT values/proc = 5415 1152
Generated 0 of 6 mixed pair_coeff terms from arithmetic mixing rule
Setting up Verlet run ...
  Unit style    : real
  Current step  : 8000000
  Time step     : 2
Per MPI rank memory allocation (min/avg/max) = 14.4 | 14.41 | 14.41 Mbytes
   Step        Density          Temp          Press          TotEng    
   8000000   1.1143043      304.10632     -789.1129      -13894.802    
   8100000   1.1143043      286.69321     -183.13855     -13974.641    
   8200000   1.1143043      291.5119      -7.2154292     -13892.111    
   8300000   1.1143043      290.63645     -263.11328     -13932.852    
   8400000   1.1143043      299.79513      180.2824      -13936.042    
   8500000   1.1143043      299.10905      436.20288     -13925.595    
   8600000   1.1143043      297.69673      1224.0188     -13844.365    
   8700000   1.1143043      292.16305      42.867661     -13947.759    
   8800000   1.1143043      303.86123     -566.45379     -13899.92     
   8900000   1.1143043      304.62206     -941.14474     -13897.879    
   9000000   1.1143043      303.10174      905.19623     -13918.284    
Loop time of 5230.03 on 12 procs for 1000000 steps with 1608 atoms

Performance: 33.040 ns/day, 0.726 hours/ns, 191.204 timesteps/s
93.8% CPU use with 12 MPI tasks x no OpenMP threads

MPI task timing breakdown:
Section |  min time  |  avg time  |  max time  |%varavg| %total
---------------------------------------------------------------
Pair    | 2948.1     | 3181.5     | 3396.5     | 269.3 | 60.83
Bond    | 13.558     | 14.139     | 14.488     |   6.6 |  0.27
Kspace  | 1174       | 1391.2     | 1626.1     | 409.2 | 26.60
Neigh   | 169        | 169.1      | 169.21     |   0.5 |  3.23
Comm    | 151.71     | 152.67     | 153.73     |   6.1 |  2.92
Output  | 0.3549     | 0.35667    | 0.35788    |   0.1 |  0.01
Modify  | 300.2      | 300.64     | 301.14     |   1.7 |  5.75
Other   |            | 20.45      |            |       |  0.39

Nlocal:            134 ave         143 max         123 min
Histogram: 2 0 0 1 2 0 1 4 1 1
Nghost:        4279.17 ave        4370 max        4229 min
Histogram: 2 3 2 1 0 1 2 0 0 1
Neighs:        49911.7 ave       57333 max       45273 min
Histogram: 2 2 1 3 1 0 1 1 0 1

Total # of neighbors = 598940
Ave neighs/atom = 372.47512
Ave special neighs/atom = 1.8656716
Neighbor list builds = 79579
Dangerous builds = 0
PPPM initialization ...
  extracting TIP4P info from pair style
  using 12-bit tables for long-range coulomb (../kspace.cpp:342)
  G vector (1/distance) = 0.31041208
  grid = 24 24 24
  stencil order = 5
  estimated absolute RMS force accuracy = 0.0037564192
  estimated relative force accuracy = 1.1312345e-05
  using double precision KISS FFT
  3d grid and FFT values/proc = 5415 1152
Generated 0 of 6 mixed pair_coeff terms from arithmetic mixing rule
Setting up Verlet run ...
  Unit style    : real
  Current step  : 9000000
  Time step     : 2
Per MPI rank memory allocation (min/avg/max) = 14.4 | 14.41 | 14.41 Mbytes
   Step        Density          Temp          Press          TotEng    
   9000000   1.1143043      303.10174      905.58951     -13918.284    
   9100000   1.1143043      305.30011      60.473821     -13892.889    
   9200000   1.1143043      307.98918      831.01368     -13914.331    
   9300000   1.1143043      303.18441      1147.5676     -13888.422    
   9400000   1.1143043      304.33511     -149.87939     -13852.69     
   9500000   1.1143043      302.97469      218.86474     -13887.272    
   9600000   1.1143043      293.14584      908.03354     -13921.093    
   9700000   1.1143043      287.9418      -274.93211     -13967.617    
   9800000   1.1143043      302.85443      132.57742     -13900.204    
   9900000   1.1143043      295.80492      256.83382     -13883.871    
  10000000   1.1143043      303.8432       1176.7179     -13861.621    
Loop time of 5244.61 on 12 procs for 1000000 steps with 1608 atoms

Performance: 32.948 ns/day, 0.728 hours/ns, 190.672 timesteps/s
93.7% CPU use with 12 MPI tasks x no OpenMP threads

MPI task timing breakdown:
Section |  min time  |  avg time  |  max time  |%varavg| %total
---------------------------------------------------------------
Pair    | 2948.8     | 3182.5     | 3410.6     | 280.4 | 60.68
Bond    | 13.603     | 14.152     | 14.467     |   6.4 |  0.27
[...]
  15600000   1.1143043      296.52086      163.14721     -13905.382    
  15700000   1.1143043      296.10135      474.25086     -13923.884    
  15800000   1.1143043      299.89444     -460.23477     -13930.544    
  15900000   1.1143043      305.87177      594.21674     -13921.124    
  16000000   1.1143043      300.73178     -192.00114     -13875.815    
  16100000   1.1143043      309.41043      248.80201     -13868.73     
  16200000   1.1143043      300.05671      430.21957     -13887.74     
  16300000   1.1143043      295.29579     -428.72808     -13884.478    
  16400000   1.1143043      310.73717      295.12651     -13886.32     
  16500000   1.1143043      300.97357     -225.49986     -13925.353    
  16600000   1.1143043      282.33097      584.82416     -14021.976    
  16700000   1.1143043      302.14316     -848.86657     -13892.288    
  16800000   1.1143043      293.64969     -711.28314     -13935.849    
  16900000   1.1143043      299.5395      -515.08599     -13940.815    
  17000000   1.1143043      291.17157      771.49681     -13957.64     
  17100000   1.1143043      299.44917     -790.3725      -13925.592    
  17200000   1.1143043      291.35822      154.81876     -13955.401    
  17300000   1.1143043      291.75558      334.39556     -13935.44     
  17400000   1.1143043      291.39014      1098.7544     -13976.411    
  17500000   1.1143043      296.88549     -443.04903     -13891.71     
Loop time of 13082.6 on 12 procs for 2500000 steps with 1608 atoms

Performance: 33.021 ns/day, 0.727 hours/ns, 191.093 timesteps/s
93.7% CPU use with 12 MPI tasks x no OpenMP threads

MPI task timing breakdown:
Section |  min time  |  avg time  |  max time  |%varavg| %total
---------------------------------------------------------------
Pair    | 7360       | 7937.5     | 8453.4     | 438.1 | 60.67
Bond    | 33.945     | 35.332     | 36.189     |   9.8 |  0.27
Kspace  | 2986.2     | 3502.4     | 4083.5     | 662.3 | 26.77
Neigh   | 422.77     | 422.93     | 423.22     |   0.7 |  3.23
Comm    | 379.19     | 381.57     | 384.05     |   9.0 |  2.92
Output  | 0.88918    | 0.89064    | 0.89433    |   0.1 |  0.01
Modify  | 750.17     | 751.05     | 752.02     |   2.3 |  5.74
Other   |            | 50.93      |            |       |  0.39

Nlocal:            134 ave         145 max         124 min
Histogram: 2 0 0 2 3 2 0 1 1 1
Nghost:         4266.5 ave        4291 max        4217 min
Histogram: 1 0 1 0 0 2 1 2 3 2
Neighs:        49931.1 ave       57977 max       45818 min
Histogram: 3 1 3 2 0 1 0 1 0 1

Total # of neighbors = 599173
Ave neighs/atom = 372.62002
Ave special neighs/atom = 1.8656716
Neighbor list builds = 198924
Dangerous builds = 0
PPPM initialization ...
  extracting TIP4P info from pair style
  using 12-bit tables for long-range coulomb (../kspace.cpp:342)
  G vector (1/distance) = 0.31041208
  grid = 24 24 24
  stencil order = 5
  estimated absolute RMS force accuracy = 0.0037564192
  estimated relative force accuracy = 1.1312345e-05
  using double precision KISS FFT
  3d grid and FFT values/proc = 5415 1152
Generated 0 of 6 mixed pair_coeff terms from arithmetic mixing rule
Setting up Verlet run ...
  Unit style    : real
  Current step  : 17500000
  Time step     : 2
Per MPI rank memory allocation (min/avg/max) = 14.4 | 14.41 | 14.41 Mbytes
   Step        Density          Temp          Press          TotEng    
  17500000   1.1143043      296.88549     -442.54874     -13891.71     
  17600000   1.1143043      295.01047      573.62595     -13916.447    
  17700000   1.1143043      295.91009     -247.86169     -13885.533    
  17800000   1.1143043      298.47378      138.36265     -13878.481    
  17900000   1.1143043      297.76055      428.60055     -13934.249    
  18000000   1.1143043      302.49777      386.85038     -13914.484    
  18100000   1.1143043      306.07606     -158.89254     -13866.795    
  18200000   1.1143043      276.46971      841.47671     -13959.798    
  18300000   1.1143043      312.67788      736.2038      -13894.008    
  18400000   1.1143043      298.24311      677.00988     -13949.377    
  18500000   1.1143043      304.46393     -608.97457     -13856.775    
  18600000   1.1143043      314.01686     -298.13771     -13848.407    
  18700000   1.1143043      296.19047      151.76477     -13957.402    
  18800000   1.1143043      293.27157     -259.46747     -13918.316    
  18900000   1.1143043      292.14957     -929.93971     -13964.814    
  19000000   1.1143043      298.29319      178.97432     -13878.022    
  19100000   1.1143043      300.48469     -948.15725     -13874.568    
  19200000   1.1143043      299.09145     -414.89889     -13922.69     
  19300000   1.1143043      298.89489     -68.447273     -13925.438    
  19400000   1.1143043      302.1107      -741.6515      -13814.256    
  19500000   1.1143043      295.37997      109.23432     -13896.486    
  19600000   1.1143043      293.07733      442.21521     -13917.514    
  19700000   1.1143043      301.64678      624.64024     -13842.829    
  19800000   1.1143043      303.45327     -32.063403     -13907.543    
  19900000   1.1143043      291.37419      503.90284     -13924.068    
  20000000   1.1143043      291.89156      457.82722     -13923.898    
Loop time of 13114 on 12 procs for 2500000 steps with 1608 atoms

Performance: 32.942 ns/day, 0.729 hours/ns, 190.636 timesteps/s
93.7% CPU use with 12 MPI tasks x no OpenMP threads

MPI task timing breakdown:
Section |  min time  |  avg time  |  max time  |%varavg| %total
---------------------------------------------------------------
Pair    | 7418.2     | 7964.1     | 8536.9     | 435.3 | 60.73
Bond    | 34.212     | 35.437     | 36.372     |   9.5 |  0.27
Kspace  | 2928.2     | 3506.7     | 4055.5     | 658.6 | 26.74
Neigh   | 422.66     | 422.88     | 423.19     |   0.8 |  3.22
Comm    | 379.23     | 381.67     | 383.83     |   7.9 |  2.91
Output  | 0.88827    | 0.8905     | 0.89357    |   0.1 |  0.01
Modify  | 750.46     | 751.41     | 752.37     |   2.3 |  5.73
Other   |            | 50.9       |            |       |  0.39

Nlocal:            134 ave         146 max         121 min
Histogram: 1 0 1 1 2 2 2 2 0 1
Nghost:        4299.92 ave        4338 max        4245 min
Histogram: 1 0 0 2 0 2 3 1 2 1
Neighs:          49925 ave       54741 max       43953 min
Histogram: 1 1 0 2 1 1 2 2 0 2

Total # of neighbors = 599100
Ave neighs/atom = 372.57463
Ave special neighs/atom = 1.8656716
Neighbor list builds = 199028
Dangerous builds = 0
PPPM initialization ...
  extracting TIP4P info from pair style
  using 12-bit tables for long-range coulomb (../kspace.cpp:342)
  G vector (1/distance) = 0.31041208
  grid = 24 24 24
  stencil order = 5
  estimated absolute RMS force accuracy = 0.0037564192
  estimated relative force accuracy = 1.1312345e-05
  using double precision KISS FFT
  3d grid and FFT values/proc = 5415 1152
Generated 0 of 6 mixed pair_coeff terms from arithmetic mixing rule
Setting up Verlet run ...
  Unit style    : real
  Current step  : 20000000
  Time step     : 2
Per MPI rank memory allocation (min/avg/max) = 14.4 | 14.41 | 14.41 Mbytes
   Step        Density          Temp          Press          TotEng    
  20000000   1.1143043      291.89156      457.12306     -13923.898    
  20100000   1.1143043      308.20412     -229.35709     -13891.922    
  20200000   1.1143043      288.8176      -1274.1492     -13942.486    
  20300000   1.1143043      292.43941      268.24056     -13952.64     
  20400000   1.1143043      301.26235      378.08299     -13922.794    
  20500000   1.1143043      297.37746      502.2131      -13871.712    
  20600000   1.1143043      309.26471      238.09129     -13867.92     
  20700000   1.1143043      302.23072      123.09247     -13858.767    
  20800000   1.1143043      294.62648     -26.887146     -13878.675    
  20900000   1.1143043      298.80592      716.15661     -13933.819    
  21000000   1.1143043      302.02531      1243.9159     -13859.345    
  21100000   1.1143043      291.44502     -515.32708     -13981.665    
  21200000   1.1143043      306.61379      175.05458     -13891.196    
  21300000   1.1143043      291.86763      31.243478     -13887.61     
  21400000   1.1143043      301.84059      755.97876     -13881.379    
  21500000   1.1143043      295.01877      271.17068     -13950.515    
  21600000   1.1143043      304.59451      1114.5273     -13938.397    
  21700000   1.1143043      288.23321     -1678.2088     -13973.967    
  21800000   1.1143043      307.16353     -209.4055      -13965.911    
  21900000   1.1143043      295.65152     -644.81766     -13954.021    
  22000000   1.1143043      289.95884      755.74301     -13941.852    
  22100000   1.1143043      298.23021     -259.78857     -13864.198    
  22200000   1.1143043      293.13948     -100.616       -13969.089    
  22300000   1.1143043      294.59438      421.36268     -13890.169    
  22400000   1.1143043      303.00702      354.81551     -13877.974    
  22500000   1.1143043      295.32404      1177.1329     -13953.035    
  22600000   1.1143043      292.05491     -199.81105     -13980.83     
  22700000   1.1143043      292.76296     -69.001747     -13955.656    
  22800000   1.1143043      298.41733      237.04958     -13893.023    
  22900000   1.1143043      302.25625      675.74513     -13913.52     
  23000000   1.1143043      295.3684       324.65573     -13934.821    
  23100000   1.1143043      305.04843     -87.369535     -13956.172    
  23200000   1.1143043      287.06996      232.23455     -13972.529    
  23300000   1.1143043      307.64774     -148.86034     -13858.54     
  23400000   1.1143043      300.9984       347.29754     -13960.255    
  23500000   1.1143043      299.92995     -1671.2072     -13928.581    
  23600000   1.1143043      305.29888      555.69272     -13876.953    
  23700000   1.1143043      301.65329      287.97259     -13888.924    
  23800000   1.1143043      308.60156      311.3103      -13842.169    
  23900000   1.1143043      301.82481     -402.10226     -13860.316    
  24000000   1.1143043      291.23348     -806.7287      -13915.546    
  24100000   1.1143043      305.34418     -168.51128     -13946.874    
  24200000   1.1143043      294.42438     -42.415459     -13985.503    
  24300000   1.1143043      286.00974      84.577936     -14027.735    
  24400000   1.1143043      298.56838      15.179893     -13932.831    
  24500000   1.1143043      297.89899     -601.02457     -13931.628    
  24600000   1.1143043      284.35684     -1627.738      -13931.279    
  24700000   1.1143043      286.99632      44.23936      -13916.482    
  24800000   1.1143043      307.62054      229.54714     -13852.207    
  24900000   1.1143043      296.75367      231.85994     -13887.369    
  25000000   1.1143043      309.29873     -326.99323     -13971.72     
Loop time of 26220.4 on 12 procs for 5000000 steps with 1608 atoms

Performance: 32.951 ns/day, 0.728 hours/ns, 190.691 timesteps/s
93.7% CPU use with 12 MPI tasks x no OpenMP threads

MPI task timing breakdown:
Section |  min time  |  avg time  |  max time  |%varavg| %total
---------------------------------------------------------------
Pair    | 14756      | 15931      | 17049      | 623.2 | 60.76
Bond    | 68.506     | 70.868     | 72.847     |  12.9 |  0.27
Kspace  | 5876.5     | 7004.8     | 8185.8     | 943.7 | 26.71
Neigh   | 845.84     | 846.3      | 846.89     |   1.1 |  3.23
Comm    | 758.53     | 762.74     | 767.08     |  12.2 |  2.91
Output  | 1.7812     | 1.7847     | 1.7926     |   0.2 |  0.01
Modify  | 1499.5     | 1501.5     | 1503.9     |   3.7 |  5.73
Other   |            | 101.9      |            |       |  0.39

Nlocal:            134 ave         145 max         125 min
Histogram: 2 0 3 0 1 2 1 2 0 1
Nghost:           4314 ave        4358 max        4257 min
Histogram: 1 0 1 1 2 2 1 2 0 2
Neighs:        49908.6 ave       54881 max       45772 min
Histogram: 2 1 2 2 0 1 0 1 2 1

Total # of neighbors = 598903
Ave neighs/atom = 372.45211
Ave special neighs/atom = 1.8656716
Neighbor list builds = 397887
Dangerous builds = 0
PPPM initialization ...
  extracting TIP4P info from pair style
  using 12-bit tables for long-range coulomb (../kspace.cpp:342)
  G vector (1/distance) = 0.31041208
  grid = 24 24 24
  stencil order = 5
  estimated absolute RMS force accuracy = 0.0037564192
  estimated relative force accuracy = 1.1312345e-05
  using double precision KISS FFT
  3d grid and FFT values/proc = 5415 1152
Generated 0 of 6 mixed pair_coeff terms from arithmetic mixing rule
Setting up Verlet run ...
  Unit style    : real
  Current step  : 25000000
  Time step     : 2
Per MPI rank memory allocation (min/avg/max) = 14.4 | 14.41 | 14.41 Mbytes
   Step        Density          Temp          Press          TotEng    
  25000000   1.1143043      309.29873     -326.29458     -13971.72     
  25100000   1.1143043      301.4446       386.89524     -13912.111    
  25200000   1.1143043      295.47783     -125.54537     -13954.103    
  25300000   1.1143043      301.79033     -460.98248     -13906.677    
  25400000   1.1143043      294.47677      1104.0732     -13871.447    
  25500000   1.1143043      307.54386     -723.6266      -13847.24     
  25600000   1.1143043      299.3302      -140.89208     -13929.899    
  25700000   1.1143043      303.21513      0.79234762    -13868.394    
  25800000   1.1143043      296.28484      514.80794     -13898.358    
  25900000   1.1143043      307.69131     -107.76126     -13890.613    
  26000000   1.1143043      302.64751      145.41101     -13899.056    
  26100000   1.1143043      312.27316      871.51524     -13885.615    
  26200000   1.1143043      303.53151      423.41381     -13934.915    
  26300000   1.1143043      291.25149      88.011009     -13920.439    
  26400000   1.1143043      289.00727     -1278.1062     -13888.498    
  26500000   1.1143043      298.61053     -282.27202     -13892.09     
  26600000   1.1143043      297.24359     -188.82258     -13884.319    
  26700000   1.1143043      299.68384      433.58152     -13856.641    
  26800000   1.1143043      299.28232      23.68373      -13835.289    
  26900000   1.1143043      303.14512     -623.15054     -13886.333    
  27000000   1.1143043      288.56966      181.45407     -13990.261    
  27100000   1.1143043      288.98495     -441.40891     -13907.461    
  27200000   1.1143043      294.02614     -683.51757     -13955.528    
  27300000   1.1143043      301.40516     -512.26944     -13937.299    
  27400000   1.1143043      293.57063      1270.912      -13926.75     
  27500000   1.1143043      304.22781     -308.90907     -13893.521    
  27600000   1.1143043      283.61653      448.13198     -14029.151    
  27700000   1.1143043      295.30883      83.676532     -13932.802    
  27800000   1.1143043      291.80302      432.5178      -13956.606    
  27900000   1.1143043      305.60231     -3.3142404     -13913.999    
  28000000   1.1143043      298.41627      896.80449     -13929.978    
  28100000   1.1143043      303.64376     -1367.8793     -13905.516    
  28200000   1.1143043      296.37103     -158.87632     -14042.679    
  28300000   1.1143043      298.86818      188.56894     -13970.396    
  28400000   1.1143043      298.38313     -1500.0829     -13969.513    
  28500000   1.1143043      301.36884     -226.07482     -13873.236    
  28600000   1.1143043      305.63213     -440.61259     -13846.275    
  28700000   1.1143043      291.30301      113.91141     -13899.261    
  28800000   1.1143043      290.35797     -47.456215     -13966.248    
  28900000   1.1143043      309.88299     -111.98747     -13948.488    
  29000000   1.1143043      308.6428      -85.797521     -13888.062    
  29100000   1.1143043      302.66568     -1301.0741     -13919.545    
  29200000   1.1143043      299.45274      566.63288     -13930.289    
  29300000   1.1143043      290.73135      328.3133      -13893.804    
  29400000   1.1143043      312.92402     -919.61836     -13876.066    
  29500000   1.1143043      293.31371      93.813359     -13884.283    
  29600000   1.1143043      305.65888     -174.35389     -13848.687    
  29700000   1.1143043      295.81592     -613.59627     -13940.631    
  29800000   1.1143043      303.68087      615.08998     -13905.071    
  29900000   1.1143043      294.30306     -690.31733     -13895.154    
  30000000   1.1143043      300.90889      92.891739     -13952.51     
Loop time of 26243.8 on 12 procs for 5000000 steps with 1608 atoms

Performance: 32.922 ns/day, 0.729 hours/ns, 190.521 timesteps/s
93.7% CPU use with 12 MPI tasks x no OpenMP threads

MPI task timing breakdown:
Section |  min time  |  avg time  |  max time  |%varavg| %total
---------------------------------------------------------------
Pair    | 14726      | 15943      | 17228      | 622.6 | 60.75
Bond    | 68.454     | 70.87      | 72.763     |  13.9 |  0.27
Kspace  | 5718.7     | 7014.5     | 8238.4     | 942.8 | 26.73
Neigh   | 846.05     | 846.45     | 847.09     |   1.1 |  3.23
Comm    | 758.49     | 763.22     | 767.72     |  12.1 |  2.91
Output  | 1.7789     | 1.7826     | 1.7913     |   0.2 |  0.01
Modify  | 1500.6     | 1502.4     | 1504.4     |   3.3 |  5.72
Other   |            | 101.6      |            |       |  0.39

Nlocal:            134 ave         139 max         127 min
Histogram: 1 1 0 1 1 2 1 1 2 2
Nghost:        4296.92 ave        4370 max        4259 min
Histogram: 3 3 1 0 0 3 1 0 0 1
Neighs:        49906.8 ave       55519 max       44441 min
Histogram: 1 0 1 1 4 1 3 0 0 1

Total # of neighbors = 598881
Ave neighs/atom = 372.43843
Ave special neighs/atom = 1.8656716
Neighbor list builds = 398020
Dangerous builds = 0
PPPM initialization ...
  extracting TIP4P info from pair style
  using 12-bit tables for long-range coulomb (../kspace.cpp:342)
  G vector (1/distance) = 0.31041208
  grid = 24 24 24
  stencil order = 5
  estimated absolute RMS force accuracy = 0.0037564192
  estimated relative force accuracy = 1.1312345e-05
  using double precision KISS FFT
  3d grid and FFT values/proc = 5415 1152
Generated 0 of 6 mixed pair_coeff terms from arithmetic mixing rule
Setting up Verlet run ...
  Unit style    : real
  Current step  : 30000000
  Time step     : 2
Per MPI rank memory allocation (min/avg/max) = 14.4 | 14.41 | 14.41 Mbytes
   Step        Density          Temp          Press          TotEng    
  30000000   1.1143043      300.90889      93.067607     -13952.51     
  30100000   1.1143043      297.56379      427.01657     -13915.974    
  30200000   1.1143043      303.05058      590.47961     -13830.547    
  30300000   1.1143043      297.81737     -214.8395      -13881.326    
  30400000   1.1143043      298.77103     -467.84773     -13936.338    
  30500000   1.1143043      305.8692       518.61811     -13924.3      
  30600000   1.1143043      301.69176      20.979915     -13893.782    
  30700000   1.1143043      302.20695      651.72672     -13923.137    
  30800000   1.1143043      303.65781     -752.86806     -13886.133    
  30900000   1.1143043      302.77434     -610.24963     -13876.63     
  31000000   1.1143043      285.55739      691.87427     -13971.272    
  31100000   1.1143043      294.92338      450.16883     -13905.024    
  31200000   1.1143043      298.48105     -1435.1978     -13922.703    
  31300000   1.1143043      285.18043     -938.73135     -13993.948    
  31400000   1.1143043      296.54172      57.377725     -13906.316    
  31500000   1.1143043      306.43536     -111.13305     -13902.579    
  31600000   1.1143043      301.97182      379.55791     -13894.279    
  31700000   1.1143043      305.29302      65.104877     -13865.809    
  31800000   1.1143043      316.05365      753.1357      -13831.026    
  31900000   1.1143043      294.60838      320.32622     -13896.479    
