1608
 Atoms. Timestep: 0
Ow 11.7632 7.93517 2.38918
H 12.3765 7.58599 3.03586
H 12.0033 7.49986 1.5712
Ow 12.2405 24.795 3.9069
H 11.8899 24.0365 4.37376
H 13.1544 24.5689 3.73386
Ow 11.979 3.49982 0.861293
H 11.7759 4.4308 0.952178
H 11.8739 3.32138 25.5543
Ow 25.0678 12.715 16.2888
H 25.874 12.5254 15.8089
H 25.3648 13.0133 17.1485
Ow 7.7239 3.90255 1.08894
H 7.14173 3.51276 0.436743
H 8.05594 4.69666 0.670167
Ow 2.66398 9.0067 17.3127
H 3.58554 9.2265 17.4493
H 2.28522 9.79338 16.9204
Ow 17.8172 14.1065 13.0372
H 17.0264 13.6655 13.3477
H 17.5677 15.0282 12.971
Ow 1.86841 18.7482 17.8106
H 0.921416 18.6824 17.9335
H 2.03378 18.3046 16.9786
Ow 25.3519 21.179 3.38384
H 24.4296 21.3918 3.52617
H 25.6881 20.973 4.2561
Ow 19.8882 12.7427 4.19662
H 20.7804 13.0836 4.13313
H 19.5061 13.2074 4.94105
Ow 15.725 9.58776 24.0795
H 15.6033 10.1591 23.3212
H 16.279 10.0931 24.6743
Ow 20.4484 18.8243 25.7503
H 20.0243 19.4492 25.1622
H 20.0599 18.9996 0.979817
Ow 19.9719 16.1951 25.3196
H 20.1025 17.1378 25.4221
H 20.6655 15.9206 24.7197
Ow 15.4359 12.664 13.9324
H 15.2728 12.1654 14.7331
H 14.8848 13.4419 14.0177
Ow 13.4218 14.6439 22.3577
H 13.017 13.7803 22.2765
H 12.8154 15.1426 22.9052
Ow 13.073 23.0865 21.5095
H 13.9107 22.9794 21.96
H 12.4293 22.7038 22.1057
Ow 19.7768 7.90388 15.1867
H 20.5162 7.68976 15.7556
H 19.837 7.27469 14.4679
Ow 20.0344 24.9602 22.3661
H 19.9742 24.7984 23.3077
H 19.127 24.947 22.0618
Ow 4.87312 19.1301 13.3655
H 4.47184 19.5925 14.1013
H 5.73169 19.5408 13.2634
Ow 6.08658 6.15049 23.625
H 5.46639 6.13322 22.8961
H 5.809 6.89503 24.1587
Ow 5.37461 5.50485 6.55583
H 5.57328 4.57014 6.61125
H 5.48116 5.71831 5.62884
Ow 25.4622 5.91476 3.4829
H 25.5027 5.55365 2.59735
H 0.520871 6.58189 3.50165
Ow 20.3927 1.01509 1.26636
H 20.218 0.800805 2.18278
H 19.7467 0.508432 0.774143
Ow 17.9432 7.53297 8.537
H 17.078 7.92336 8.41324
H 17.7846 6.58908 8.52428
Ow 7.37965 11.6268 9.64527
H 8.02317 11.9679 10.2664
H 7.76251 10.809 9.32777
Ow 4.34055 2.68914 9.99045
H 4.88897 2.4049 9.25923
H 3.87929 3.45966 9.65914
Ow 22.2745 3.46473 9.05161
H 22.375 2.74588 8.4276
H 21.7863 4.13325 8.57102
Ow 14.782 8.13333 5.49019
H 15.1138 8.31465 6.36956
H 15.3026 8.69566 4.91661
Ow 1.10182 24.5291 5.5902
H 1.78885 25.1815 5.72649
H 1.15798 23.9578 6.35619
Ow 11.4635 5.88876 18.0344
H 10.6254 5.73582 17.598
H 12.1138 5.50405 17.4469
Ow 1.67442 25.4038 25.1649
H 1.38328 0.550838 24.6837
H 2.38763 25.0466 24.6357
Ow 2.53861 1.07873 8.75305
H 3.23839 1.60626 9.13809
H 2.20406 0.555453 9.4814
Ow 9.5898 17.9909 21.4435
H 8.84812 17.3959 21.3339
H 9.29075 18.6307 22.0896
Ow 17.4647 17.316 4.07322
H 17.3161 18.252 4.20795
H 17.5237 16.9528 4.95684
Ow 7.55029 6.5786 8.11629
H 8.22595 6.25775 7.51899
H 7.73245 7.51417 8.20438
Ow 15.0434 16.2565 24.1092
H 14.4374 16.9289 23.7978
H 15.8467 16.7343 24.3153
Ow 3.475 7.36783 25.6298
H 3.70468 7.60264 0.901378
H 3.95717 7.99247 25.088
Ow 8.93385 9.28716 22.1162
H 9.79504 9.41951 21.7198
H 8.67787 8.40554 21.8451
Ow 4.59655 7.00212 9.32451
H 3.88004 6.3758 9.22176
H 5.01637 6.75351 10.148
Ow 6.77396 11.6347 2.10527
H 6.78836 12.5892 2.03556
H 6.03528 11.3653 1.55935
Ow 5.13012 14.8477 6.62278
H 4.58801 14.1434 6.26729
H 5.9657 14.4277 6.82682
Ow 20.6285 14.641 12.017
H 21.5176 14.2865 12.0204
H 20.547 15.0766 11.1686
Ow 25.3977 9.04857 15.1671
H 0.435092 9.68997 15.4175
H 25.4397 8.37994 15.8507
Ow 12.8011 9.41 25.0477
H 12.3319 8.60099 25.2514
H 13.3193 9.1979 24.2714
Ow 6.20972 13.8363 23.6093
H 6.31898 13.6764 22.6719
H 6.6091 13.0753 24.0307
Ow 10.594 11.4674 7.27745
H 10.9021 12.1187 7.90754
H 10.1694 10.7973 7.81317
Ow 14.516 19.2346 3.81719
H 14.2391 18.4042 3.4301
H 14.336 19.1355 4.75207
Ow 5.79723 3.38262 24.2819
H 5.71923 3.06341 23.3829
H 5.68173 4.33017 24.211
Ow 13.955 21.6126 19.1841
H 13.6844 21.958 20.0348
H 14.5145 20.8653 19.3954
Ow 19.8065 23.5666 13.2234
H 19.1475 24.1171 13.6462
H 20.5229 23.5206 13.8566
Ow 1.93595 6.14971 13.2428
H 1.76047 6.23835 14.1796
H 2.43806 5.33817 13.1684
Ow 17.4472 14.7351 9.72568
H 16.5781 14.4717 9.42314
H 17.8799 15.0776 8.94361
Ow 10.8754 15.6619 8.99024
H 9.98751 15.3964 9.2298
H 10.8779 15.6552 8.03307
Ow 14.6722 3.65445 25.9304
H 15.1366 3.8867 1.10694
H 13.7585 3.56004 0.572178
Ow 16.7991 15.0554 21.8871
H 16.9803 14.4312 21.1845
H 17.3655 15.803 21.6959
Ow 25.8546 6.29378 10.2747
H 25.76 6.53499 11.1962
H 25.5443 5.38938 10.2303
Ow 9.34154 8.2673 14.6995
H 8.54415 8.7727 14.8575
H 9.28785 7.53578 15.3145
Ow 3.99834 13.9256 25.186
H 4.84393 13.9456 24.7379
H 3.63402 14.8003 25.0501
Ow 1.24173 6.93274 23.9714
H 1.76435 7.38386 23.3084
H 1.85714 6.75652 24.6831
Ow 20.2512 0.548795 7.3323
H 19.3804 0.756616 6.99349
H 20.3 1.01161 8.16875
Ow 1.9798 16.5653 19.4616
H 1.99383 17.4013 18.9956
H 2.01645 15.9045 18.7701
Ow 22.1663 15.4745 18.3405
H 21.954 15.35 19.2656
H 23.091 15.7217 18.3377
Ow 23.1521 20.8324 0.666635
H 23.0359 19.9014 0.477085
H 22.9329 20.9176 1.59449
Ow 12.7774 3.1072 9.11542
H 11.9286 3.52963 8.98404
H 13.4157 3.74948 8.80511
Ow 19.543 7.09715 3.44384
H 18.6803 7.04207 3.03281
H 20.1604 6.96387 2.72466
Ow 21.0936 23.6111 19.7658
H 21.8758 23.3341 19.2887
H 20.5918 24.1199 19.1291
Ow 8.88368 19.8039 23.3309
H 9.34265 20.632 23.4713
H 8.56333 19.557 24.1984
Ow 13.3926 21.9346 8.66748
H 12.5365 22.3341 8.51322
H 13.2343 21.2847 9.35222
Ow 1.40472 20.7951 14.3226
H 2.26035 20.851 14.748
H 1.1582 19.8734 14.3995
Ow 23.4249 16.8279 14.5782
H 23.1119 17.7082 14.3697
H 23.882 16.5422 13.7872
Ow 24.0595 23.3845 19.3261
H 24.1646 22.4659 19.5737
H 24.2459 23.8721 20.1284
Ow 25.419 22.7578 12.8449
H 25.3463 23.6447 12.4924
H 24.514 22.4567 12.9259
Ow 24.1771 16.3238 24.2495
H 23.8186 16.9529 24.8756
H 23.4319 15.7735 24.0087
Ow 19.121 3.38007 20.3788
H 18.6209 4.15233 20.1146
H 19.2654 2.89765 19.5648
Ow 3.91812 19.5494 19.8228
H 4.05999 19.0552 20.6302
H 4.62402 20.1957 19.8098
Ow 9.61029 15.2454 24.8836
H 9.21399 14.7287 24.1821
H 10.2163 15.8348 24.4346
Ow 16.8799 22.2898 9.45279
H 17.6496 22.2362 8.88628
H 16.7925 21.4112 9.82247
Ow 20.1194 12.029 19.7576
H 20.1673 11.3212 19.115
H 20.2615 11.598 20.6004
Ow 5.95426 6.37625 11.5673
H 6.85153 6.67285 11.415
H 5.69915 6.79533 12.3892
Ow 23.8324 8.31276 9.65413
H 23.3647 7.6769 10.1956
H 23.1468 8.74399 9.14407
Ow 4.7829 18.8357 17.308
H 4.47266 18.914 18.2102
H 4.70193 19.7193 16.9489
Ow 9.60523 25.283 2.12608
H 8.90242 25.0335 2.72615
H 9.66076 24.5558 1.50608
Ow 25.4047 9.56896 25.2682
H 25.7058 9.68837 0.541362
H 24.6806 10.1877 25.1732
Ow 23.8093 11.9086 24.3457
H 24.4553 12.5863 24.5448
H 23.888 11.772 23.4016
Ow 10.1833 23.3177 12.3938
H 11.0382 23.3847 12.8191
H 10.0758 22.3831 12.217
Ow 24.4785 7.92283 22.7349
H 24.2726 7.28619 22.0504
H 24.1206 8.74894 22.4098
Ow 20.4517 19.5464 18.576
H 20.58 20.4757 18.3857
H 20.4308 19.4978 19.5318
Ow 12.0347 9.23193 5.78886
H 11.8502 10.164 5.90502
H 12.9822 9.15875 5.90332
Ow 20.7482 5.42543 13.3874
H 21.4126 5.26334 14.0571
H 21.2484 5.59373 12.5888
Ow 8.85229 21.3672 9.44259
H 8.96811 21.0741 10.3464
H 8.27789 20.7104 9.04907
Ow 23.0877 4.88294 4.02593
H 23.9514 5.25301 3.84347
H 22.7333 4.66439 3.16404
Ow 10.6092 6.28825 11.2022
H 11.0975 6.4929 11.9996
H 9.85985 6.88361 11.2202
Ow 20.2585 16.5434 2.39909
H 20.8844 17.1123 2.84729
H 19.4796 16.5583 2.9553
Ow 10.9333 10.4565 2.8616
H 10.4362 10.4532 2.04358
H 11.4175 9.63085 2.85157
Ow 17.3235 5.47498 20.0777
H 16.6827 5.72052 20.745
H 17.1936 6.11133 19.3746
Ow 1.22993 22.9359 8.04017
H 25.9425 22.8279 8.2998
H 1.62791 23.4241 8.76095
Ow 18.906 13.2763 6.76776
H 19.6645 12.9996 7.28197
H 18.2895 12.5474 6.83816
Ow 19.9615 14.9588 20.4536
H 19.4017 15.7334 20.5059
H 20.3306 14.8696 21.3323
Ow 17.1466 19.7398 0.683292
H 17.7552 19.9045 1.40346
H 17.2253 18.8013 0.512451
Ow 15.055 10.9304 11.9761
H 15.9663 10.6468 11.9029
H 15.0141 11.3933 12.8129
Ow 6.32689 21.6067 25.2785
H 5.46158 21.7536 25.6605
H 6.15718 21.0879 24.4923
Ow 8.71989 23.4314 25.8059
H 9.11566 22.9085 0.875672
H 9.21882 23.2026 25.0217
Ow 13.3977 8.75205 10.4003
H 12.5528 8.4993 10.0282
H 14.0011 8.73737 9.65737
Ow 17.3015 13.4169 19.8572
H 17.0351 12.548 20.1576
H 16.674 13.6355 19.1683
Ow 1.42555 22.2436 22.5722
H 2.22663 22.7139 22.3414
H 1.70125 21.3318 22.6665
Ow 5.24552 12.5966 11.5226
H 4.88119 12.7082 12.4007
H 4.51071 12.7697 10.9341
Ow 12.3454 25.5885 7.54668
H 13.0912 25.7883 6.98082
H 11.929 0.808566 7.70306
Ow 6.72192 15.3087 12.8473
H 6.73171 14.3728 12.6468
H 7.64495 15.5621 12.8553
Ow 18.047 11.113 16.6772
H 18.0649 10.8229 15.7652
H 17.1283 11.324 16.8438
Ow 6.5193 24.2348 23.8038
H 5.57988 24.0625 23.74
H 6.88971 23.8403 23.0142
Ow 16.8377 7.47459 22.8901
H 17.7702 7.68185 22.8291
H 16.4746 8.16372 23.4464
Ow 0.899512 24.0094 2.75636
H 1.00988 24.3682 3.63687
H 25.8367 24.544 2.36411
Ow 24.5964 4.00357 20.7955
H 24.8249 3.62683 19.9457
H 25.297 3.71686 21.3813
Ow 9.40505 25.5346 7.77814
H 8.4572 25.5388 7.64475
H 9.71608 0.684569 7.31444
Ow 25.2331 18.6651 6.71754
H 25.2918 18.1526 7.52383
H 24.434 19.182 6.81935
Ow 12.1536 16.9131 20.0396
H 12.2303 16.1173 19.5133
H 12.8241 16.819 20.7162
Ow 6.22402 1.52304 4.27896
H 6.74172 0.737699 4.10157
H 6.42052 1.73917 5.1905
Ow 1.04544 8.76919 6.01805
H 1.78926 9.12518 6.5041
H 0.549055 9.53932 5.74103
Ow 6.68424 21.1038 4.66105
H 7.48823 20.5952 4.76693
H 6.98265 22.0091 4.57358
Ow 21.7868 3.7196 16.137
H 21.2866 3.25242 16.8062
H 21.7998 4.62822 16.4378
Ow 14.7754 2.67358 15.5583
H 14.7962 2.36028 14.6541
H 14.1278 3.37838 15.5533
Ow 15.8135 19.7198 10.795
H 16.3513 18.9881 11.0977
H 15.06 19.7242 11.3852
Ow 16.9616 20.2489 3.74334
H 17.0057 20.8748 4.46619
H 16.1123 19.8201 3.84871
Ow 11.4273 24.4246 19.1969
H 10.5571 24.0656 19.0234
H 11.6723 24.8642 18.3827
Ow 9.3221 11.9055 5.02069
H 9.73172 11.3872 5.7134
H 8.62298 12.3871 5.46283
Ow 20.8 16.0164 9.61326
H 21.074 16.863 9.96587
H 21.6192 15.5579 9.42598
Ow 16.9205 21.6064 20.6983
H 16.9176 20.7851 20.2068
H 16.9521 22.2879 20.0269
Ow 23.7787 1.12339 22.7228
H 24.2201 0.564678 22.0831
H 24.4876 1.48782 23.2528
Ow 3.1757 16.371 24.3634
H 3.53594 16.6592 23.5247
H 2.75827 17.1522 24.7263
Ow 13.4198 20.1762 11.9216
H 13.489 20.7054 12.7162
H 12.7757 19.5018 12.1377
Ow 6.60628 3.78844 11.7817
H 6.32879 4.67756 11.5611
H 7.24737 3.90423 12.483
Ow 11.6667 7.26883 13.4953
H 10.9013 7.69751 13.8784
H 11.886 6.57199 14.1138
Ow 2.0886 14.6186 6.52232
H 1.6778 14.148 5.79702
H 1.38172 14.7499 7.15424
Ow 15.4368 14.3294 17.9725
H 14.5676 14.4628 18.3505
H 15.3158 13.6255 17.3351
Ow 2.93586 20.2619 9.09517
H 3.38671 20.8423 8.48187
H 2.5305 20.8522 9.73034
Ow 19.0728 7.62699 25.8925
H 19.9408 7.24208 0.386391
H 19.0685 7.92733 24.9837
Ow 17.2337 21.7522 6.11484
H 17.6005 22.6101 5.90093
H 16.2904 21.8567 5.99008
Ow 9.18578 6.0615 16.4783
H 8.42368 6.18923 17.0432
H 8.89177 5.4355 15.8166
Ow 13.1935 21.7687 24.0964
H 13.0602 20.8221 24.1468
H 12.3096 22.1334 24.052
Ow 23.0821 10.5715 16.9273
H 22.2417 10.2545 17.2581
H 23.4431 9.8307 16.4402
Ow 24.6079 16.3256 17.518
H 24.3506 16.3471 16.5962
H 24.8086 17.2367 17.7324
Ow 13.1648 16.1503 10.8899
H 13.5758 15.4871 10.3353
H 13.7088 16.9295 10.7754
Ow 14.356 13.9966 4.26695
H 14.7805 13.1631 4.47008
H 14.3292 14.4622 5.10285
Ow 14.7798 7.17932 14.2841
H 14.0397 6.7532 14.7163
H 15.5192 6.5915 14.4392
Ow 0.374274 1.61917 12.0264
H 0.750646 0.843451 11.6107
H 0.955938 1.80207 12.7643
Ow 6.92856 3.8391 18.3087
H 6.79436 3.57438 19.2188
H 6.29487 3.32129 17.8122
Ow 5.01307 15.9282 14.9183
H 5.31416 15.6518 15.7839
H 5.73932 15.7153 14.3323
Ow 1.15059 24.6169 14.7695
H 0.646843 23.9333 14.3278
H 1.37463 25.2365 14.0752
Ow 15.7353 3.58735 18.2335
H 16.3472 4.18359 17.8019
H 15.2037 4.15305 18.7935
Ow 2.25855 20.9826 2.3466
H 2.23245 20.1461 1.88214
H 2.6336 20.7709 3.20143
Ow 22.5647 3.54267 1.29521
H 23.4363 3.85851 1.05703
H 21.9632 4.13938 0.849785
Ow 13.2885 17.9051 1.22637
H 14.2151 17.7067 1.36149
H 13.2798 18.5267 0.49853
Ow 2.35819 5.22935 20.2639
H 1.7021 5.82929 19.9091
H 2.16077 4.38763 19.853
Ow 2.6024 2.31828 3.41938
H 2.64192 1.68428 4.13542
H 2.00693 1.92382 2.78216
Ow 25.8886 14.707 8.93214
H 25.0151 14.6842 8.54151
H 25.89 15.4983 9.47084
Ow 24.6065 14.7778 3.56079
H 24.4251 15.43 4.23746
H 24.4565 15.2396 2.73591
Ow 19.8817 8.56328 10.7265
H 20.4848 7.89692 11.0557
H 20.2747 9.3948 10.9916
Ow 19.0407 4.08947 3.20902
H 18.46 4.52237 3.83477
H 19.6989 3.65621 3.75248
Ow 13.0775 9.651 13.5393
H 14.0112 9.67748 13.7484
H 12.8725 8.71827 13.4743
Ow 25.1577 13.9453 25.4735
H 0.37302 13.8468 25.9164
H 25.2281 14.7776 25.006
Ow 8.17877 3.2203 9.20436
H 7.80893 3.34663 10.0781
H 7.44375 2.91062 8.67513
Ow 18.5171 17.287 20.8103
H 18.9685 17.9244 21.3636
H 17.909 17.8105 20.2883
Ow 20.9143 3.20968 11.4868
H 21.3333 3.72445 10.7971
H 21.5317 2.50033 11.6655
Ow 2.56077 17.7122 8.6306
H 1.78379 17.4165 9.10502
H 2.66191 18.6297 8.88396
Ow 11.0081 25.3053 22.0184
H 10.2538 25.63 21.5267
H 10.7652 24.4142 22.2699
Ow 18.5839 5.03109 0.6294
H 18.7545 5.97297 0.625407
H 18.7584 4.75944 1.53051
Ow 11.1797 15.7704 6.17985
H 12.0976 15.6724 5.92681
H 10.6901 15.6139 5.37235
Ow 1.03054 20.9816 6.15799
H 0.774217 20.1315 6.51556
H 1.17803 21.5312 6.92774
Ow 0.948523 20.9098 20.1538
H 25.632 20.7541 20.1823
H 1.12151 21.4738 20.9077
Ow 4.64591 11.2534 20.0377
H 3.74172 11.5674 20.0304
H 5.13313 11.9354 20.4999
Ow 13.9482 7.74868 19.9251
H 13.1606 8.06216 19.4804
H 14.6662 8.2193 19.5018
Ow 1.22977 7.86143 19.4439
H 1.84644 8.14129 18.7674
H 1.61142 8.17837 20.2625
Ow 4.5982 25.7608 16.9585
H 5.14965 25.6857 17.7373
H 4.44954 1.07363 16.8594
Ow 4.645 12.2441 5.24263
H 5.066 11.5636 4.71733
H 4.525 11.843 6.1034
Ow 24.9311 3.46696 9.76572
H 23.9855 3.58315 9.67314
H 25.2422 3.31164 8.87393
Ow 13.5523 19.4949 6.45076
H 12.6506 19.1784 6.39484
H 13.4673 20.4305 6.63438
Ow 7.16323 24.2006 20.7793
H 7.53293 23.7288 20.033
H 6.42001 24.6814 20.4149
Ow 15.6392 23.5741 12.1422
H 14.8365 23.3441 12.6103
H 16.1115 24.1494 12.744
Ow 22.5052 13.2038 4.70499
H 23.1851 13.6677 4.21647
H 22.5342 13.5886 5.58097
Ow 6.29193 10.0851 4.31309
H 6.7212 10.6423 3.66384
H 5.70046 9.53283 3.80187
Ow 23.5865 24.9827 2.02671
H 23.1142 24.841 2.84713
H 23.0247 24.594 1.35618
Ow 8.87116 0.904927 13.4711
H 8.99798 1.82534 13.7013
H 9.26893 0.817176 12.6049
Ow 15.4354 9.72481 3.02503
H 15.6217 10.4989 3.55636
H 14.6434 9.95278 2.53818
Ow 16.2686 23.5432 15.8932
H 16.7302 24.1859 15.3545
H 16.4755 22.6998 15.4907
Ow 6.02072 21.3393 19.7102
H 6.44957 21.1598 20.5469
H 6.69378 21.7698 19.183
Ow 7.82005 0.89112 23.6675
H 7.32235 25.7341 23.8979
H 7.16153 1.58281 23.6032
Ow 7.42916 16.3287 20.943
H 6.50702 16.2859 21.1961
H 7.54555 15.598 20.3357
Ow 25.1569 10.1058 12.59
H 24.9329 10.3128 11.6827
H 0.412316 10.457 12.7053
Ow 25.3052 18.5745 22.4478
H 0.571308 18.9141 22.4955
H 24.792 19.2987 22.0896
Ow 20.6728 19.7578 21.3079
H 21.6056 19.9207 21.1679
H 20.3123 20.613 21.5419
Ow 8.64213 5.62856 5.42984
H 8.76025 4.86018 4.87139
H 9.5265 5.97299 5.55433
Ow 1.92871 2.95348 18.8795
H 2.32043 3.0649 18.0133
H 2.19983 2.07767 19.1547
Ow 17.2938 15.9203 16.4996
H 18.1246 15.4759 16.6687
H 16.6467 15.4146 16.9912
Ow 11.1253 10.4103 20.3855
H 10.5365 11.1504 20.2377
H 11.2171 10.0012 19.525
Ow 17.8211 18.5029 16.9334
H 17.4429 18.6553 17.7994
H 17.4889 17.6434 16.6743
Ow 2.8613 4.8143 8.93892
H 2.49903 4.73981 8.05606
H 2.11602 5.06757 9.48356
Ow 24.6363 1.98822 18.6733
H 25.1758 1.31754 19.0921
H 23.7376 1.67915 18.7875
Ow 16.5113 4.56636 14.3577
H 16.9681 4.77714 15.172
H 15.8617 3.91013 14.6098
Ow 4.94789 9.67507 10.1948
H 4.51472 10.1553 9.48911
H 4.87521 8.7555 9.93921
Ow 22.5165 0.788232 24.8868
H 23.0475 0.954732 24.108
H 22.333 25.4768 24.8559
Ow 5.38305 8.3526 6.73918
H 4.76023 9.07338 6.83304
H 6.05618 8.69233 6.14951
Ow 21.7366 6.51163 19.3494
H 21.1019 7.12653 19.7172
H 21.6844 6.64988 18.4037
Ow 3.79286 24.3896 23.9684
H 3.72709 24.0539 23.0745
H 3.67164 23.6194 24.5236
Ow 11.6232 16.4653 23.4618
H 11.9259 17.3322 23.732
H 11.2415 16.6038 22.595
Ow 6.18821 20.7311 22.7084
H 5.72527 19.9412 22.429
H 7.09992 20.4547 22.8012
Ow 20.3548 12.2609 13.5692
H 19.8294 11.4645 13.6461
H 21.2602 11.9591 13.6431
Ow 14.9069 5.14613 8.72031
H 15.8356 5.0265 8.52169
H 14.8984 5.6623 9.52637
Ow 19.5821 22.1747 21.8473
H 18.6949 22.2348 21.4931
H 19.4587 21.921 22.762
Ow 5.04443 7.69369 13.5872
H 4.35932 8.13749 13.0873
H 5.56924 8.40338 13.9575
Ow 18.0043 4.61206 16.9256
H 18.6183 3.93597 17.2124
H 18.0763 5.2985 17.5888
Ow 3.25634 25.0467 1.79532
H 2.62425 24.4887 2.24849
H 2.74203 25.4966 1.12504
Ow 19.4355 2.03497 9.44579
H 18.9347 2.76721 9.08638
H 20.1482 2.44805 9.9333
Ow 15.7767 11.7982 4.80608
H 16.659 11.6774 5.15709
H 15.1968 11.601 5.5416
Ow 16.2841 25.5629 7.29216
H 16.789 25.0677 6.64715
H 15.4647 25.7743 6.84468
Ow 11.4445 21.2293 17.424
H 10.7539 21.7504 17.8337
H 11.1769 21.1541 16.508
Ow 19.9243 25.8576 4.17029
H 20.1449 0.955574 4.7544
H 20.6993 25.2958 4.18215
Ow 17.1883 4.59081 5.34108
H 16.2882 4.87108 5.50716
H 17.6168 4.64103 6.19552
Ow 22.8285 18.0636 0.560361
H 21.9328 18.3971 0.509035
H 22.9359 17.804 1.4754
Ow 19.8273 24.7675 17.495
H 19.6494 25.6875 17.6906
H 20.3262 24.788 16.6783
Ow 17.0627 17.0562 11.0644
H 17.0501 17.0366 12.0213
H 17.2291 16.1492 10.8079
Ow 9.15343 16.3263 14.5931
H 9.57207 17.0904 14.1966
H 9.69026 16.1299 15.3609
Ow 2.19918 11.5104 24.4834
H 1.33843 11.0918 24.4924
H 2.47568 11.4709 23.5678
Ow 17.2123 9.85248 10.7396
H 17.7509 10.6398 10.66
H 16.6806 9.84402 9.94366
Ow 9.14499 2.13933 18.3468
H 8.38804 2.72514 18.3377
H 8.97188 1.53478 19.0685
Ow 22.2409 11.6263 1.00393
H 22.9057 11.6087 25.943
H 22.6603 11.2036 1.75335
Ow 20.1338 16.7733 16.8207
H 20.7334 16.4693 17.5022
H 20.4272 16.3269 16.0264
Ow 4.63784 23.2194 4.92774
H 4.45049 23.7314 5.71453
H 5.28963 23.7366 4.45449
Ow 6.14749 13.4283 20.8576
H 6.77199 13.5648 20.1451
H 5.45273 14.0659 20.6931
Ow 2.25472 19.5682 23.1151
H 2.79063 18.8293 22.8268
H 2.06562 19.3831 24.035
Ow 12.0314 19.8356 21.2313
H 12.671 19.6268 21.912
H 11.5966 20.6284 21.5456
Ow 11.0852 10.2353 15.5917
H 11.6221 9.96462 14.8469
H 10.2759 9.73253 15.4994
Ow 24.9117 19.0178 17.9894
H 24.5706 19.5255 17.2531
H 24.4648 19.3769 18.756
Ow 11.0863 12.6344 13.7353
H 10.3182 12.7523 13.1765
H 11.5079 13.4937 13.7482
Ow 4.11813 15.3201 9.1625
H 4.60785 15.0809 8.37563
H 3.48004 15.9667 8.86073
Ow 4.46561 11.2329 0.879285
H 4.66427 10.7207 25.7229
H 4.15491 10.5881 1.51487
Ow 3.03516 5.28319 4.09885
H 2.60998 5.07534 4.93086
H 2.64747 6.11698 3.83292
Ow 17.201 17.0492 25.6723
H 16.9735 16.465 0.76816
H 18.0267 16.7024 25.3344
Ow 3.66095 6.86006 15.688
H 3.2425 7.65914 16.0083
H 3.85205 7.04153 14.7678
Ow 1.56752 8.1342 3.49585
H 1.45159 8.33122 4.42536
H 2.46295 8.41122 3.30168
Ow 25.2133 24.9832 21.4065
H 0.445826 25.2413 21.075
H 25.4014 24.4983 22.2101
Ow 17.5432 6.85003 11.6428
H 16.5911 6.83318 11.5456
H 17.7571 6.01345 12.0559
Ow 19.1845 8.15561 19.7595
H 19.3234 7.66633 20.5704
H 18.5746 7.61678 19.2556
Ow 13.2172 9.31018 22.1066
H 12.5315 8.66325 22.2728
H 13.7695 8.90765 21.4364
Ow 8.8328 6.09928 25.9211
H 9.78791 6.041 25.8963
H 8.62275 6.84022 25.3526
Ow 20.804 12.7098 8.45964
H 21.5842 13.2535 8.35055
H 21.1104 11.8164 8.30412
Ow 21.7226 9.33241 24.9684
H 21.3316 8.90984 24.2037
H 21.9215 8.61127 25.5656
Ow 25.4376 6.78025 7.4503
H 25.8325 7.36272 6.80147
H 24.5759 6.5696 7.0907
Ow 9.3909 4.06053 21.7898
H 8.54253 3.67298 21.5746
H 9.90659 3.96929 20.9886
Ow 9.12886 7.00472 2.86309
H 9.99187 7.39902 2.73675
H 8.82918 6.79463 1.97862
Ow 21.4805 10.6967 11.0737
H 21.7961 11.5982 11.1359
H 21.5237 10.4912 10.1398
Ow 1.31685 13.9029 11.9321
H 0.679682 14.5703 12.1865
H 2.0846 14.085 12.4739
Ow 2.54938 21.8165 11.7454
H 2.44361 22.708 11.4133
H 3.31677 21.8624 12.3157
Ow 6.27627 6.20443 3.82313
H 6.00186 5.36861 3.44586
H 5.67315 6.84639 3.44846
Ow 16.8105 14.1359 0.615165
H 16.1255 14.7352 0.911667
H 16.8343 14.2499 25.2926
Ow 13.8041 22.9368 16.4255
H 14.7343 23.1182 16.2912
H 13.4015 23.1043 15.5734
Ow 14.6705 24.2296 9.28817
H 14.2408 23.4474 8.94217
H 15.2895 24.4857 8.60448
Ow 14.8564 17.2513 17.8268
H 15.3197 17.8541 18.4084
H 15.3145 16.4174 17.9311
Ow 11.5196 8.3538 8.35553
H 10.6043 8.54056 8.564
H 11.701 8.88118 7.57758
Ow 22.6967 1.68616 7.13255
H 23.3767 1.55851 6.47106
H 22.0727 0.977695 6.975
Ow 11.1378 7.35246 22.7541
H 11.286 6.74036 23.4749
H 10.4165 6.96721 22.2566
Ow 24.8373 0.659025 9.35061
H 25.5649 25.6671 9.40626
H 24.2616 25.9208 8.67902
Ow 11.8277 12.1107 22.9071
H 11.0397 12.6539 22.9225
H 12.1249 12.0932 23.8168
Ow 15.6267 15.917 2.61325
H 16.399 16.2341 3.08146
H 15.2378 15.2703 3.20218
Ow 7.38848 10.5864 19.951
H 7.70397 11.474 19.7813
H 7.83898 10.3208 20.7527
Ow 8.34606 6.58614 21.9225
H 8.71447 5.71426 21.78
H 7.6103 6.44146 22.5174
Ow 15.0084 6.70592 25.5358
H 14.07 6.62125 25.3669
H 15.3532 7.14655 24.7592
Ow 22.9425 17.4995 21.5994
H 22.0245 17.2412 21.6824
H 22.9373 18.1966 20.9435
Ow 17.5015 25.1976 21.2577
H 17.2457 0.453063 20.9909
H 17.4144 24.672 20.4626
Ow 8.13407 8.33962 5.27768
H 8.63043 8.81805 5.94173
H 7.57062 9.00116 4.87628
Ow 16.3152 16.4533 13.7301
H 15.4957 15.9689 13.6311
H 16.4323 16.5362 14.6765
Ow 2.89686 8.32957 12.0655
H 2.56635 7.51551 12.4454
H 2.2654 8.54834 11.3803
Ow 6.41058 23.1166 8.95801
H 7.25368 22.667 9.0148
H 6.47377 23.6456 8.16272
Ow 24.8708 15.8494 12.3326
H 25.0898 16.2971 11.5154
H 24.3262 15.1099 12.0627
Ow 25.5234 22.1822 0.586375
H 25.2199 22.8877 25.6426
H 24.7701 21.5971 0.666175
Ow 3.37963 17.4416 5.95014
H 2.79377 16.7048 5.77652
H 3.13603 17.7407 6.8262
Ow 18.8006 12.4181 10.6535
H 19.5741 12.478 10.0928
H 18.1227 12.9 10.1797
Ow 12.6556 2.48711 21.3214
H 12.1128 2.85172 20.6224
H 12.0913 2.49938 22.0945
Ow 7.11529 17.7827 15.5628
H 7.8409 17.2092 15.3162
H 6.47313 17.6723 14.8616
Ow 5.29256 3.60321 2.62139
H 6.1124 3.6714 2.13205
H 5.40055 2.82124 3.16278
Ow 15.5434 21.7912 25.9426
H 14.8397 21.5931 0.93298
H 16.1828 21.0912 0.446979
Ow 22.0151 23.8445 25.4281
H 21.079 23.9841 25.5711
H 22.201 23.0083 25.8552
Ow 21.4841 21.6691 17.0162
H 22.3916 21.3647 17.02
H 21.5268 22.5465 16.6359
Ow 17.2711 7.27782 18.0326
H 17.7534 7.51305 17.24
H 16.9786 8.115 18.3929
Ow 21.7217 21.272 10.3878
H 22.5549 21.6086 10.0581
H 21.64 21.6496 11.2636
Ow 20.2566 19.5882 15.6741
H 20.4382 20.4599 16.0253
H 20.8722 19.489 14.9478
Ow 16.8624 11.1123 0.537036
H 16.2975 10.9243 1.28655
H 16.8351 12.0651 0.448998
Ow 3.08355 4.87253 1.05884
H 3.28346 5.72691 0.676348
H 2.12767 4.82311 1.04942
Ow 4.22554 15.1907 20.5094
H 4.26197 16.0222 20.982
H 3.38854 15.2147 20.0456
Ow 14.1104 4.59094 23.1167
H 13.7013 3.87029 22.6376
H 13.3876 5.18421 23.321
Ow 8.84446 3.20547 3.57463
H 8.58468 3.36713 2.66765
H 8.18554 2.59648 3.90808
Ow 22.6197 17.922 3.34334
H 22.514 18.8216 3.65279
H 23.0101 17.4578 4.08384
Ow 22.421 1.49336 14.3622
H 22.2234 0.669522 14.8077
H 22.2925 2.16514 15.0318
Ow 10.0874 12.7441 20.4325
H 10.8719 13.1642 20.08
H 9.36007 13.1999 20.0089
Ow 22.598 24.5773 10.8601
H 22.6531 24.0293 11.6429
H 23.0414 24.0699 10.1803
Ow 10.1087 16.8982 11.5238
H 10.3563 17.5807 12.1475
H 9.22554 17.1383 11.2434
Ow 14.5197 0.667184 17.6838
H 13.6442 0.681292 17.2973
H 14.9609 25.5631 17.2521
Ow 24.4191 23.9221 16.581
H 23.6883 24.2988 16.0907
H 24.0888 23.8353 17.4752
Ow 1.28211 4.42079 22.6094
H 1.27212 5.1692 23.2061
H 1.89893 4.67061 21.9214
Ow 24.9428 1.09179 5.36424
H 25.1676 1.35255 4.4711
H 25.2149 25.8034 5.42251
Ow 1.65725 12.8105 4.35547
H 0.979067 12.1757 4.5865
H 2.47934 12.3784 4.58727
Ow 14.934 24.0534 3.05577
H 14.7191 23.3683 2.42278
H 15.5744 24.604 2.60531
Ow 5.34369 8.60967 20.9061
H 5.58885 8.90917 21.7816
H 5.40782 7.65573 20.9521
Ow 14.2796 0.901811 5.74829
H 14.1504 1.79168 5.42014
H 14.0307 25.9651 5.01623
Ow 14.5478 5.10502 5.87826
H 14.6967 6.02134 5.64497
H 14.2406 5.13493 6.78434
Ow 18.6307 10.069 14.1747
H 19.0213 9.2619 14.5098
H 17.7281 9.82962 13.9645
Ow 22.5544 18.487 10.9075
H 23.3895 18.4111 10.446
H 22.7976 18.6645 11.8161
Ow 7.4333 13.1845 6.86075
H 7.1365 12.7041 7.63368
H 7.78963 14.002 7.20844
Ow 19.1429 21.4465 24.5491
H 18.2101 21.259 24.6537
H 19.2559 22.3195 24.925
Ow 20.2954 11.996 24.3171
H 20.835 12.7576 24.1051
H 20.0912 11.6029 23.4685
Ow 15.8638 9.67448 14.5454
H 15.6944 10.042 15.4128
H 15.5349 8.77701 14.5966
Ow 17.2577 0.399963 2.98315
H 17.3581 0.630795 2.05964
H 18.1243 0.545792 3.36254
Ow 24.2268 11.463 7.73377
H 24.0031 12.3935 7.71764
H 23.3844 11.0126 7.67157
Ow 14.12 4.96712 20.1682
H 14.1606 5.91587 20.0479
H 13.2431 4.80667 20.5166
Ow 24.5028 7.00251 12.7543
H 24.6965 6.17651 13.1975
H 23.7547 6.80312 12.1914
Ow 3.68097 3.70677 12.587
H 4.10726 3.87652 13.4271
H 2.7691 3.52366 12.8133
Ow 13.5301 12.0491 20.4494
H 13.4014 12.8245 19.9031
H 14.4687 12.0407 20.6369
Ow 11.0644 1.86477 3.8274
H 11.8334 2.42915 3.74756
H 10.3199 2.45767 3.72523
Ow 14.6613 22.5225 5.40809
H 13.8051 22.1062 5.30904
H 14.8379 22.9145 4.55289
Ow 24.3157 9.50363 19.0687
H 24.192 10.0699 19.8305
H 24.0272 10.0341 18.326
Ow 0.453144 2.75632 7.40141
H 25.6529 2.03882 6.93406
H 1.13133 2.33055 7.92582
Ow 24.2764 6.71629 20.1278
H 24.676 5.8473 20.0902
H 23.4337 6.61224 19.6859
Ow 5.88676 24.22 1.27724
H 6.49625 24.3619 2.00154
H 5.13507 24.7755 1.48382
Ow 2.5181 8.48606 21.787
H 2.32296 9.38636 22.047
H 3.472 8.4235 21.836
Ow 9.47776 10.6579 0.630993
H 9.16767 9.77074 0.449518
H 8.80062 11.0392 1.18987
Ow 8.182 14.7779 9.39479
H 7.77535 15.6281 9.5619
H 8.32009 14.4028 10.2645
Ow 22.014 8.40994 4.52808
H 22.108 7.82554 3.77583
H 22.2145 7.86021 5.28558
Ow 17.8789 24.2886 5.10362
H 18.7537 24.6665 5.01403
H 17.3411 24.778 4.48114
Ow 13.3017 21.2225 2.47863
H 12.7068 21.5069 3.17244
H 13.7267 20.4411 2.83223
Ow 11.1933 6.36747 6.02214
H 11.5413 7.157 5.60773
H 11.4727 6.43266 6.93532
Ow 5.58449 14.6163 17.172
H 6.33895 14.5894 17.7605
H 5.39349 13.6973 16.9845
Ow 19.566 4.74247 22.6386
H 19.952 5.61735 22.6815
H 18.6667 4.86171 22.9438
Ow 2.91005 12.7663 9.43012
H 2.99536 13.6187 9.00307
H 3.06042 12.131 8.73007
Ow 19.322 10.2865 0.919451
H 18.4655 10.6526 0.698612
H 19.1906 9.33864 0.898263
Ow 14.2918 15.6594 6.42876
H 14.4722 15.1033 7.18669
H 14.8322 16.4371 6.56766
Ow 10.4175 18.8938 18.5031
H 10.5261 18.2743 17.7816
H 10.8011 19.7089 18.1795
Ow 2.27167 18.2995 12.1477
H 1.7529 18.362 12.9497
H 1.66633 17.943 11.4975
Ow 24.2411 20.8315 15.9022
H 23.6113 20.6006 15.2193
H 24.4834 21.7371 15.7088
Ow 7.21139 6.53511 18.3274
H 6.9204 5.63034 18.2136
H 7.11191 6.70314 19.2645
Ow 13.9657 15.0107 13.6226
H 13.6432 15.7375 14.1555
H 13.7379 15.2519 12.7247
Ow 14.3366 20.0384 16.5666
H 14.4913 19.2087 17.0181
H 15.1103 20.1601 16.0162
Ow 7.14175 14.3911 1.96358
H 7.62981 14.8196 2.66676
H 7.08883 15.0506 1.27182
Ow 5.35492 0.640809 19.6663
H 4.4358 0.46724 19.8695
H 5.56158 1.43913 20.1523
Ow 4.28893 3.08399 16.5036
H 4.81448 3.62358 15.9129
H 3.45684 2.9669 16.0451
Ow 3.80373 23.4395 21.364
H 4.19789 22.9495 20.6424
H 3.37844 24.1865 20.9429
Ow 23.8156 16.7217 5.41161
H 24.1881 17.4902 5.84401
H 23.6877 16.0878 6.11725
Ow 19.083 11.027 22.1472
H 18.1359 11.089 22.023
H 19.2537 10.0884 22.2255
Ow 2.82663 14.6963 17.6435
H 2.95569 13.9214 17.0966
H 3.71115 15.0209 17.8124
Ow 19.8781 24.457 10.6791
H 20.796 24.6435 10.4817
H 19.7948 24.6278 11.6172
Ow 4.95655 16.7975 11.4099
H 4.79382 16.4244 10.5435
H 5.3649 16.0868 11.9043
Ow 11.182 3.12751 23.7481
H 10.3938 3.43473 23.3002
H 11.0136 2.20148 23.9222
Ow 21.9229 4.13167 20.6604
H 22.8504 4.09887 20.8947
H 21.8299 4.94334 20.1617
Ow 10.6824 13.541 2.68145
H 10.0889 14.2285 2.9837
H 11.2342 13.9707 2.02786
Ow 15.8799 9.50863 18.8295
H 15.9704 10.0897 19.5847
H 15.4586 10.0483 18.1605
Ow 6.98906 24.8135 11.32
H 6.70873 24.1254 10.7165
H 7.78021 25.1752 10.9207
Ow 14.3224 25.802 25.3409
H 13.5431 0.373114 25.86
H 15.0235 0.673904 25.7597
Ow 9.28104 19.8033 4.95347
H 9.47498 19.1788 4.25447
H 9.88601 20.5293 4.80131
Ow 5.17838 5.92551 21.0477
H 4.2587 5.91038 20.7828
H 5.48756 5.03302 20.8924
Ow 22.8463 20.0091 6.82257
H 23.1435 20.7795 7.30683
H 22.7164 20.3235 5.92786
Ow 23.1262 1.4259 11.6371
H 22.9965 1.40026 12.5851
H 22.8685 0.554606 11.336
Ow 25.5789 1.02024 16.3758
H 25.1558 1.5187 17.075
H 0.406911 1.6798 15.8527
Ow 20.263 9.83628 17.8889
H 19.4433 10.0634 17.4498
H 20.0132 9.17899 18.5384
Ow 3.43504 20.3509 4.93393
H 2.6128 20.7312 5.243
H 3.26414 19.4099 4.8938
Ow 4.70023 15.8556 3.75498
H 3.84525 15.7762 3.33195
H 5.08304 14.9808 3.68834
Ow 16.8488 20.6929 15.4882
H 17.2768 20.7893 14.6374
H 17.3428 20.0012 15.9283
Ow 3.52082 0.56413 6.2045
H 3.13777 0.656016 7.07688
H 4.13246 1.2969 6.13256
Ow 11.0942 18.3972 6.6674
H 10.9483 17.4569 6.56339
H 10.4648 18.805 6.07264
Ow 7.48521 23.8223 13.9237
H 6.58478 23.8425 14.2478
H 7.43367 24.2052 13.048
Ow 18.0522 21.3855 12.8606
H 17.6059 21.9049 12.1917
H 18.7871 21.9324 13.1383
Ow 10.6561 0.626466 24.4143
H 9.70835 0.751089 24.4646
H 10.809 25.9321 23.5259
Ow 18.3312 19.7013 7.73592
H 17.7004 19.0232 7.49389
H 18.002 20.4961 7.31626
Ow 10.6021 16.3715 16.8457
H 11.372 15.8163 16.9691
H 9.93824 15.9927 17.422
Ow 8.00343 0.622856 16.1706
H 7.46473 1.35258 15.8648
H 8.42741 0.953026 16.9627
Ow 0.380531 10.1823 2.09354
H 25.1878 10.3197 2.56731
H 0.857052 9.54036 2.61994
Ow 19.6398 22.4984 8.31184
H 20.1805 21.7086 8.30569
H 19.8768 22.9452 9.12457
Ow 20.8836 19.0685 8.66293
H 21.5861 19.2278 8.03265
H 20.0958 19.4026 8.23379
Ow 7.54375 11.5885 24.379
H 6.95368 10.8523 24.2179
H 8.30833 11.1957 24.8
Ow 14.6638 6.58164 11.5092
H 14.2458 7.35421 11.1289
H 14.4993 6.65803 12.4491
Ow 13.8737 25.7152 20.2768
H 13.442 0.9034 20.5307
H 14.261 25.9045 19.4222
Ow 22.2922 14.4235 1.2488
H 22.2603 13.4673 1.2787
H 23.1593 14.6237 0.896199
Ow 11.6931 13.0166 9.00402
H 11.5481 13.952 9.14604
H 12.5973 12.9581 8.6952
Ow 2.61123 17.0104 15.517
H 3.50968 16.8551 15.2255
H 2.45424 16.3377 16.1796
Ow 12.3305 12.1304 4.76498
H 12.9507 12.729 4.34863
H 12.7233 11.9307 5.6147
Ow 10.9722 22.6535 7.86978
H 10.3816 21.9942 8.23438
H 10.892 22.5494 6.92164
Ow 6.70631 17.6857 2.22231