1608
 Atoms. Timestep: 0
Ow 21.5939 9.4297 18.8314
H 22.5397 9.37 18.9658
H 21.2152 8.98411 19.5893
Ow 13.8122 6.98407 18.3176
H 13.2576 6.85092 17.5489
H 14.6099 6.49081 18.1263
Ow 0.689027 7.76081 9.89694
H 0.667243 7.56146 10.8329
H 1.10138 6.99466 9.49792
Ow 12.971 17.6568 22.5898
H 12.1063 17.4765 22.2211
H 13.4553 16.8389 22.477
Ow 8.69625 20.584 10.5246
H 8.68219 19.653 10.7463
H 9.57526 20.7347 10.1769
Ow 12.4067 13.9445 17.8294
H 13.3004 13.6036 17.7936
H 11.891 13.2275 18.1985
Ow 23.8773 7.63476 8.89313
H 23.5328 6.81525 9.24798
H 24.7299 7.73947 9.31542
Ow 13.6493 3.40479 12.1757
H 13.053 2.99786 11.5472
H 14.0197 2.67037 12.6653
Ow 16.5466 6.43496 7.35286
H 16.2105 7.05569 6.70636
H 16.0322 6.60768 8.14143
Ow 4.90076 17.9202 25.4529
H 4.54207 17.0664 25.6949
H 4.15359 18.403 25.0995
Ow 24.1935 10.3811 9.82038
H 24.3358 10.4375 10.7653
H 25.0346 10.6276 9.43585
Ow 19.4708 9.23092 16.6589
H 18.945 8.76868 17.3116
H 18.8495 9.45772 15.967
Ow 8.25368 20.7212 19.766
H 8.33323 20.6305 20.7155
H 8.32273 21.6628 19.6082
Ow 17.3939 15.9437 12.4554
H 16.9071 16.5624 11.911
H 18.3114 16.1884 12.335
Ow 25.2452 12.0373 22.4766
H 25.8421 11.7999 21.767
H 25.792 12.5144 23.1008
Ow 6.30056 23.4743 21.5626
H 6.26987 24.4221 21.6925
H 7.05383 23.335 20.9886
Ow 16.1754 10.2526 22.2391
H 16.3725 10.4085 23.1627
H 15.756 9.39224 22.2251
Ow 20.2811 25.602 6.27789
H 20.8056 25.8564 5.51865
H 20.7061 0.404299 7.01879
Ow 9.86461 16.4099 3.42528
H 9.30379 15.677 3.67951
H 9.25531 17.0901 3.13844
Ow 1.12973 5.51008 8.20512
H 1.18092 4.555 8.24298
H 25.9408 5.68836 7.74228
Ow 23.2521 24.7817 16.0295
H 22.5187 25.3451 16.2762
H 23.1129 23.9753 16.526
Ow 16.0183 18.7048 9.48191
H 16.6717 19.371 9.69536
H 15.2781 18.9021 10.0558
Ow 17.1585 17.5609 14.7627
H 17.3895 18.1989 14.0874
H 17.5987 17.8768 15.5518
Ow 19.9356 16.6234 11.9609
H 20.2625 15.8009 11.5964
H 20.0742 16.5396 12.9043
Ow 24.9083 7.7691 22.0747
H 24.2003 7.17386 21.8283
H 24.4626 8.56481 22.3653
Ow 16.4267 21.6685 7.83821
H 17.1983 22.2224 7.71964
H 16.1285 21.8595 8.72748
Ow 9.45158 9.72217 9.21206
H 9.21274 10.3272 9.9143
H 9.24245 8.85552 9.5605
Ow 22.2647 10.4058 16.1882
H 22.4929 9.92506 15.3925
H 23.0048 10.9953 16.333
Ow 24.865 1.14478 19.0785
H 24.8787 1.75219 18.3389
H 23.9377 1.05515 19.2984
Ow 0.659595 1.16762 1.58708
H 1.10988 0.415794 1.20208
H 25.3778 1.06784 1.31251
Ow 0.641074 1.09493 21.8583
H 0.355308 1.99748 21.9996
H 1.4468 1.01556 22.3689
Ow 17.6601 24.6504 16.2724
H 18.1232 24.4772 15.4528
H 18.2288 24.2865 16.951
Ow 7.25482 6.60447 18.8195
H 7.99288 7.1294 18.5097
H 7.41303 5.73186 18.4593
Ow 20.3333 11.5644 7.59413
H 20.693 10.7079 7.82513
H 19.3908 11.4748 7.73509
Ow 15.5947 11.5798 16.118
H 15.6448 12.3487 16.6859
H 15.2783 11.9198 15.281
Ow 0.993665 2.79697 7.62008
H 1.76812 2.28586 7.38511
H 0.865943 2.62408 8.55283
Ow 24.7266 15.2715 12.301
H 24.9143 15.0504 13.2132
H 25.4773 14.9335 11.8128
Ow 13.0962 16.8094 14.346
H 13.0799 17.6344 14.8311
H 13.8448 16.3339 14.7063
Ow 9.24794 12.3627 10.8044
H 8.91849 13.1657 10.4008
H 10.0483 12.1613 10.3195
Ow 17.8511 23.8946 7.06821
H 17.5034 24.3563 7.83122
H 17.3684 24.2594 6.32647
Ow 9.04651 24.008 7.75953
H 8.31231 23.424 7.94939
H 9.42284 24.207 8.61687
Ow 9.79453 8.46491 17.7264
H 9.88667 9.39132 17.9489
H 9.95097 8.00349 18.5503
Ow 6.57528 9.23741 24.8729
H 5.87788 9.8411 25.1287
H 6.56005 9.24482 23.9158
Ow 21.522 20.8309 23.5251
H 20.9137 20.4995 22.8644
H 21.1651 21.6836 23.7736
Ow 13.8345 19.9233 7.58741
H 13.6073 18.9961 7.51707
H 13.4307 20.2078 8.40732
Ow 16.5835 19.7145 20.4756
H 17.5382 19.764 20.4268
H 16.2974 19.6918 19.5625
Ow 25.0215 24.2382 20.6218
H 25.6529 23.5463 20.4251
H 24.3187 23.7941 21.0961
Ow 20.7119 3.18555 8.04023
H 20.8955 3.70753 8.8213
H 19.9629 3.61981 7.63195
Ow 9.69391 3.94055 14.0239
H 9.42364 3.59777 14.8758
H 10.0542 3.18258 13.5636
Ow 5.14757 19.029 20.4144
H 4.75453 18.2668 20.8397
H 6.08404 18.9485 20.5955
Ow 22.2363 1.3648 20.1144
H 21.7822 0.522454 20.1361
H 21.9447 1.81517 20.9071
Ow 6.30541 6.27701 10.1678
H 6.70976 5.42653 9.99635
H 6.97182 6.91526 9.91333
Ow 25.0077 23.7986 24.8349
H 25.8963 24.0491 25.0876
H 24.5771 24.6261 24.62
Ow 23.7144 5.44878 19.5809
H 24.3909 5.98906 19.1726
H 24.2003 4.80144 20.0919
Ow 10.884 22.686 21.9264
H 10.0849 22.8299 21.4194
H 11.5942 22.8285 21.3007
Ow 8.8768 7.27053 10.3623
H 9.31418 6.55889 9.8949
H 9.46988 7.48484 11.0825
Ow 18.4061 15.087 18.3304
H 17.5325 14.7006 18.2687
H 18.5667 15.1685 19.2705
Ow 20.9488 14.6789 17.5732
H 20.0864 14.9269 17.9066
H 20.9837 15.0557 16.694
Ow 1.49157 7.20416 24.9097
H 2.44628 7.2335 24.9722
H 1.30216 6.346 24.5303
Ow 12.1259 2.47334 15.6269
H 12.4476 2.32742 16.5165
H 12.2992 1.64976 15.1709
Ow 23.6456 4.90264 9.67299
H 24.2843 4.8317 10.3824
H 22.8012 4.9806 10.1171
Ow 25.7415 15.3985 6.38572
H 25.7959 14.8826 7.19013
H 1.01944 15.6268 6.18515
Ow 11.7919 21.7744 24.2775
H 12.1299 22.3628 24.9526
H 11.4932 22.3569 23.5791
Ow 3.87675 8.71717 12.2777
H 3.34191 9.17086 12.9291
H 4.31218 8.01996 12.7681
Ow 13.2365 16.7485 25.3511
H 12.3678 16.4747 25.6454
H 13.1553 17.6915 25.2083
Ow 20.7641 4.5325 10.4459
H 19.9883 4.95631 10.813
H 21.1258 4.02397 11.1718
Ow 0.863358 10.8997 19.9657
H 1.77584 10.6894 19.7672
H 0.745485 11.7909 19.637
Ow 14.8848 12.3956 5.4258
H 15.7274 12.1068 5.7765
H 14.9429 13.351 5.41806
Ow 20.5282 8.31896 5.16336
H 20.4931 8.40794 6.11577
H 20.2023 7.43526 4.9927
Ow 16.1875 3.05467 17.607
H 15.3007 2.8082 17.87
H 16.6931 3.03498 18.4195
Ow 19.1689 1.32286 10.0002
H 19.6793 2.00506 9.56393
H 19.737 0.552623 9.987
Ow 2.94907 3.29093 24.3939
H 2.99756 3.96558 23.7166
H 3.03383 2.46542 23.9169
Ow 16.2525 16.1629 25.6835
H 16.653 17.0236 25.5609
H 16.6537 15.6134 25.0102
Ow 25.8123 4.08849 24.5954
H 25.5735 4.12304 23.6691
H 1.08092 3.7581 24.5995
Ow 20.6048 22.6196 5.62329
H 21.3093 22.2659 6.16618
H 20.6529 22.117 4.81013
Ow 14.476 24.3692 17.4664
H 14.9566 24.4314 18.2918
H 13.6272 24.771 17.6519
Ow 13.8106 19.8133 21.1861
H 12.9506 20.0166 20.8184
H 13.6583 19.052 21.7461
Ow 17.8602 7.88777 4.17002
H 17.5961 7.42694 3.37371
H 17.0541 7.96678 4.68013
Ow 18.4711 18.0023 17.6638
H 18.4183 17.0583 17.8133
H 17.5875 18.3235 17.844
Ow 21.1677 24.3024 20.4204
H 20.7951 23.8267 19.678
H 20.4635 24.3256 21.0683
Ow 14.2608 14.441 21.8757
H 14.5271 14.2647 22.778
H 14.9537 14.0536 21.3409
Ow 13.8694 6.26278 2.85955
H 13.4538 6.86444 2.24189
H 14.7997 6.29435 2.63627
Ow 2.57784 5.8968 18.0313
H 2.15061 5.32863 18.6723
H 2.02535 5.83725 17.2519
Ow 20.368 1.40958 23.0878
H 20.8375 1.30675 23.9156
H 19.9042 0.580507 22.9704
Ow 18.1958 19.8118 24.2887
H 18.4606 20.6532 24.6605
H 18.7449 19.7094 23.5114
Ow 18.2512 14.7987 15.1009
H 19.0918 15.2405 14.9804
H 18.4647 14.0075 15.5956
Ow 8.84828 21.8644 2.1053
H 9.64868 21.3618 1.95377
H 9.01556 22.3431 2.91718
Ow 8.58968 20.3789 13.4378
H 7.96724 20.8181 14.0174
H 8.20458 20.4615 12.5654
Ow 10.2565 19.1019 7.0311
H 11.0779 18.7181 6.724
H 10.4956 19.5737 7.82893
Ow 9.1551 17.2442 8.55707
H 8.5616 16.7211 8.01818
H 9.51428 17.896 7.95509
Ow 4.04385 16.9385 21.9828
H 3.53205 17.079 22.7794
H 4.80762 16.4399 22.2732
Ow 2.91654 22.4125 10.8895
H 2.5355 23.2227 10.551
H 2.8988 21.81 10.1459
Ow 19.6181 16.308 8.26187
H 19.8934 17.1769 8.55411
H 18.8419 16.113 8.78693
Ow 22.9078 17.3518 22.113
H 22.4823 16.6707 21.5921
H 23.8278 17.0895 22.1454
Ow 23.9499 18.4938 13.7023
H 24.0703 17.8654 12.9904
H 24.7972 18.5177 14.1471
Ow 15.9694 22.0183 16.8059
H 16.6889 21.4212 16.6008
H 15.1823 21.4778 16.7383
Ow 9.70819 5.03438 9.23403
H 8.86983 4.57245 9.23773
H 10.3609 4.34824 9.37344
Ow 18.0544 2.77907 19.4937
H 18.1096 3.64852 19.8902
H 17.8073 2.20125 20.2157
Ow 22.3394 2.53038 11.7069
H 22.9904 2.62053 11.011
H 22.0645 1.61463 11.6612
Ow 4.6967 24.1291 6.96676
H 5.2753 24.2809 7.71404
H 3.83662 23.9734 7.35692
Ow 8.51457 1.01764 9.8463
H 9.45274 1.19433 9.91587
H 8.14185 1.83071 9.50539
Ow 19.405 5.21972 17.2366
H 19.4377 5.85084 17.9555
H 18.5785 5.40599 16.7912
Ow 16.4566 4.12006 4.6709
H 15.6416 4.08887 5.17192
H 17.1445 4.17072 5.33457
Ow 25.9379 7.40636 12.6421
H 0.925074 7.83359 13.2363
H 25.0801 7.73729 12.9082
Ow 8.56032 1.736 6.14751
H 9.14127 1.42426 6.84145
H 7.67942 1.63234 6.50738
Ow 18.2442 6.18239 11.0633
H 18.0121 6.49855 11.9364
H 17.409 6.12337 10.5995
Ow 21.5185 7.4532 11.2241
H 21.2921 6.64018 11.6757
H 22.1859 7.85774 11.7783
Ow 23.8911 9.87884 23.5034
H 23.0065 10.1131 23.2226
H 24.426 10.6372 23.269
Ow 25.8839 19.824 21.991
H 25.7116 20.423 22.7174
H 0.800799 20.3284 21.3885
Ow 20.5288 2.45525 18.3235
H 20.9917 2.05232 19.058
H 19.6403 2.59874 18.6494
Ow 9.52884 7.43057 4.85049
H 10.4388 7.65915 5.04016
H 9.01319 8.05987 5.35479
Ow 10.1458 16.4057 21.855
H 10.5717 15.6621 21.4285
H 9.22559 16.3328 21.6017
Ow 0.702566 19.4491 16.1237
H 1.20098 20.2125 16.4154
H 1.29031 18.9952 15.5198
Ow 13.5868 19.4215 4.14879
H 13.2575 18.7209 4.71183
H 12.8695 20.054 4.10824
Ow 15.4805 21.1089 5.05447
H 14.7409 20.5682 4.77716
H 15.2506 21.9937 4.77064
Ow 3.61856 6.54728 9.44436
H 4.52641 6.30502 9.62699
H 3.62357 7.50438 9.43117
Ow 22.6612 21.2846 2.87279
H 22.841 20.3907 2.58157
H 21.7085 21.365 2.82627
Ow 17.811 11.4839 9.66312
H 17.5384 12.2105 10.2234
H 17.2742 11.5735 8.87572
Ow 3.06914 25.758 3.1547
H 3.23364 25.3511 2.30407
H 2.34447 0.732988 2.99531
Ow 14.9608 7.86181 22.1079
H 14.2513 8.07119 22.7153
H 14.5616 7.92799 21.2405
Ow 16.098 1.50904 3.18876
H 16.0789 0.696392 3.69419
H 15.2836 1.49806 2.68583
Ow 6.26993 5.38 1.82408
H 6.68725 6.22839 1.97343
H 6.70163 5.03443 1.04276
Ow 14.7718 21.1473 13.4603
H 15.609 20.7 13.5841
H 14.1773 20.7185 14.0758
Ow 20.1919 5.50006 4.93508
H 21.0636 5.16949 5.15203
H 19.609 5.0674 5.55902
Ow 15.769 3.82611 10.7453
H 14.9705 3.73004 11.2643
H 15.7311 4.72188 10.4101
Ow 19.3051 6.65409 24.9918
H 20.2323 6.87764 24.9107
H 18.8773 7.48119 25.2134
Ow 21.448 25.657 11.0208
H 21.5843 24.9094 11.6029
H 21.8158 25.3784 10.1822
Ow 17.0935 1.72299 15.3281
H 16.8189 2.22744 16.0939
H 17.0583 0.810903 15.6164
Ow 23.4393 17.2208 8.55982
H 23.2269 16.4081 9.01865
H 22.6443 17.7495 8.62753
Ow 7.52079 23.0708 25.6325
H 8.22073 22.5324 0.37206
H 6.72242 22.5661 25.7877
Ow 6.60826 19.8816 23.9446
H 6.01224 20.4108 23.4146
H 7.42393 20.3822 23.9607
Ow 9.27408 13.1394 13.8609
H 9.10156 12.6609 14.6718
H 9.0672 14.05 14.0709
Ow 16.5175 17.0117 21.3081
H 17.4021 16.6469 21.3351
H 16.6435 17.9547 21.413
Ow 23.6435 13.9884 4.44621
H 23.4698 13.1308 4.83423
H 23.427 13.8811 3.52003
Ow 8.00307 0.773775 12.5852
H 8.76452 25.9073 12.8854
H 8.19886 0.984802 11.6723
Ow 1.23039 9.3341 1.25807
H 0.800516 10.0648 1.70244
H 2.05061 9.70214 0.929381
Ow 25.7066 7.33152 18.8845
H 25.845 6.93992 18.0221
H 0.952843 7.38731 19.2662
Ow 17.9668 1.73884 25.6101
H 17.218 1.72203 25.014
H 18.6681 2.1479 25.103
Ow 13.0227 23.4514 1.06316
H 13.3506 24.1009 0.441138
H 12.3264 23.9046 1.53857
Ow 1.45984 17.1383 0.67673
H 1.77321 17.1298 25.4021
H 0.912366 16.3564 0.748351
Ow 16.7864 24.3787 19.455
H 17.6992 24.1183 19.5788
H 16.6553 25.0962 20.0748
Ow 24.508 5.97808 6.65056
H 24.1226 6.74451 7.07511
H 25.0785 6.34066 5.97281
Ow 11.4417 15.7832 8.75509
H 10.6135 16.2466 8.6305
H 12.0159 16.1302 8.07236
Ow 10.4882 2.94618 25.7649
H 10.056 2.10466 25.9107
H 10.3059 3.15403 24.8485
Ow 12.3884 4.12756 22.3331
H 12.8133 3.2706 22.2972
H 12.8785 4.61073 22.9984
Ow 4.63287 21.109 22.1846
H 4.91187 20.5505 21.459
H 5.04957 21.9532 22.0116
Ow 0.368362 13.7719 14.3707
H 0.927043 13.2007 13.8437
H 0.976401 14.3775 14.7948
Ow 16.4901 0.519343 12.8714
H 15.5867 0.363703 13.1468
H 16.8743 25.275 12.8035
Ow 10.3669 1.16828 20.3721
H 11.0713 1.18313 19.7242
H 10.1273 25.8742 20.4451
Ow 4.40291 12.6639 2.09559
H 4.1573 11.9943 1.45718
H 5.3431 12.787 1.96467
Ow 12.1817 8.22495 5.7991
H 13.1236 8.05738 5.83017
H 11.8767 8.04664 6.68872
Ow 7.70394 25.4691 24.4893
H 7.2096 25.6767 23.6963
H 7.28838 24.6773 24.8308
Ow 3.27851 0.864821 23.0948
H 2.96602 25.7875 23.6592
H 4.2246 0.729346 23.0419
Ow 18.3296 5.25848 20.7997
H 18.2796 5.99247 20.1874
H 17.5422 5.34077 21.3378
Ow 18.1048 12.3347 22.3398
H 18.3247 13.1742 21.9359
H 18.9516 11.9319 22.5324
Ow 9.10322 17.8435 11.3526
H 8.27777 17.3785 11.4891
H 9.40287 17.5526 10.4913
Ow 6.28211 13.7165 17.7679
H 5.37797 13.6137 17.4709
H 6.38706 13.0542 18.4509
Ow 15.3396 22.3231 20.8
H 15.9133 22.9136 20.3118
H 14.463 22.6895 20.6837
Ow 4.22926 4.79322 7.18205
H 4.31922 4.55265 6.25995
H 4.631 4.06749 7.65971
Ow 1.71828 17.0804 17.9767
H 1.3717 17.8105 17.4639
H 1.80355 16.3642 17.3474
Ow 17.9526 9.31618 14.4396
H 18.1994 9.53016 13.5399
H 17.9175 8.3598 14.4579
Ow 19.4833 1.42634 13.3264
H 19.3736 0.477848 13.3941
H 19.7737 1.57075 12.4259
Ow 22.9055 16.4677 5.88994
H 22.9166 17.3032 5.42304
H 23.1377 16.6931 6.79079
Ow 10.6123 12.6087 23.0228
H 10.8409 13.2486 22.3486
H 10.2559 11.865 22.5369
Ow 2.5286 11.1363 5.29884
H 3.41933 10.8036 5.18866
H 2.50847 11.9432 4.78438
Ow 9.43632 4.69785 6.3192
H 9.3513 5.07018 7.19691
H 9.08994 3.80927 6.40086
Ow 6.59837 0.581225 18.6357
H 7.16632 25.5868 19.0874
H 7.116 0.878794 17.8875
Ow 5.32097 21.4074 6.92779
H 6.18955 21.5347 7.30934
H 4.95249 22.2889 6.87038
Ow 23.9116 15.5582 18.055
H 24.7783 15.3768 17.6915
H 23.8568 16.5135 18.0796
Ow 10.9729 1.91082 12.4752
H 11.6372 1.25029 12.6717
H 11.1416 2.15773 11.5659
Ow 2.6965 4.36662 4.0769
H 2.13003 3.60988 3.92624
H 2.09758 5.06696 4.33584
Ow 0.710572 11.1062 8.25032
H 0.498262 10.673 7.42356
H 0.367424 11.9942 8.15103
Ow 19.321 20.9999 13.6356
H 19.3478 21.9421 13.4695
H 19.6861 20.606 12.8433
Ow 18.8163 20.7246 16.3573
H 19.195 20.9647 15.5117
H 19.0579 21.4436 16.9413
Ow 11.518 22.2754 6.55338
H 12.3695 22.6762 6.37873
H 11.6249 21.8448 7.40155
Ow 25.8662 18.4752 8.27983
H 25.9529 18.4618 7.32666
H 25.016 18.0694 8.44923
Ow 10.7977 23.6184 9.70073
H 10.6552 24.0058 10.5644
H 10.8017 22.6744 9.85881
Ow 9.16284 2.02479 3.50079
H 10.0224 1.62705 3.3624
H 8.98432 1.89256 4.43185
Ow 12.4412 18.184 18.1394
H 12.7855 18.607 17.3528
H 13.2191 17.9435 18.6426
Ow 23.776 12.7113 16.218
H 23.4185 12.8045 15.3349
H 24.7025 12.9339 16.1265
Ow 8.17022 18.453 3.24847
H 7.2435 18.2253 3.32295
H 8.42543 18.7127 4.13371
Ow 14.2517 0.414153 20.6494
H 13.8724 0.928111 19.9366
H 13.689 0.595835 21.4021
Ow 3.74348 0.401149 17.1431
H 2.98959 25.4546 17.0174
H 4.29712 25.872 16.3786
Ow 22.9464 13.437 22.4505
H 23.8136 13.0407 22.3662
H 22.3641 12.7017 22.6413
Ow 3.97269 1.45458 19.7933
H 4.37864 1.32729 20.6508
H 3.18092 0.917367 19.8205
Ow 1.75416 10.7022 16.8222
H 1.03373 10.7279 17.4519
H 2.25332 11.5003 16.9958
Ow 12.5798 19.5318 25.7147
H 12.0324 19.5998 0.867328
H 12.1122 20.0376 25.0501
Ow 3.47202 4.36101 11.01
H 3.49239 5.27023 10.7114
H 3.75748 3.85269 10.2508
Ow 6.16497 7.1526 21.3714
H 5.51374 6.54352 21.7195
H 6.27765 6.88761 20.4586
Ow 23.2512 19.1434 5.20106
H 23.2832 19.5795 4.34957
H 23.4533 19.8342 5.83218
Ow 6.43683 23.4685 17.3513
H 6.60618 24.1096 16.661
H 7.19178 23.5396 17.9354
Ow 14.8855 9.23295 0.849627
H 14.279 8.91965 25.8084
H 15.2693 8.43666 1.21683
Ow 1.67567 23.9059 4.67459
H 2.32805 24.4896 4.28735
H 1.84733 23.9447 5.61548
Ow 10.7888 12.4586 1.99106
H 10.2481 12.1326 2.71048
H 11.6389 12.6389 2.39236
Ow 4.89721 14.5322 10.9402
H 3.97332 14.7303 11.0933
H 5.36078 15.3241 11.2127
Ow 17.4111 24.8194 1.70511
H 17.0064 24.7337 2.56833
H 17.4408 25.763 1.54662
Ow 15.0747 15.193 6.46031
H 14.4634 15.9261 6.38965
H 15.7264 15.3573 5.77871
Ow 25.8938 6.34936 1.74977
H 0.956496 5.74986 1.47177
H 0.563037 6.68633 2.59432
Ow 12.2648 1.81608 6.25123
H 13.166 1.59662 6.48785
H 11.9178 2.26734 7.02073
Ow 4.0735 8.9635 16.8018
H 3.8928 9.22574 17.7045
H 4.89233 9.40791 16.5821
Ow 0.558683 21.5652 8.65811
H 1.01353 22.4032 8.57388
H 25.4645 21.6213 8.03438
Ow 19.3849 9.52962 11.2658
H 19.7277 10.0297 12.0065
H 19.863 8.70083 11.294
Ow 22.5113 22.2926 16.9629
H 22.8071 21.723 17.673
H 21.6281 22.5575 17.2197
Ow 11.2286 15.9284 16.5402
H 11.5541 15.2017 17.0713
H 11.3348 16.6994 17.0975
Ow 12.4272 14.9733 11.4211
H 12.9538 15.772 11.3887
H 12.6498 14.573 12.2616
Ow 16.8345 11.1776 25.0419
H 16.3361 10.677 25.6878
H 17.4264 11.7198 25.5633
Ow 14.7823 17.031 19.3629
H 14.9021 16.2156 18.876
H 15.2194 16.8769 20.2004
Ow 23.6207 23.9718 1.60407
H 22.9324 24.4238 1.11612
H 24.2141 23.6399 0.930317
Ow 10.1593 16.2632 13.6062
H 10.1768 16.5451 12.6917
H 9.36638 16.6616 13.9651
Ow 4.1717 20.4136 15.916
H 3.5598 21.0983 16.1861
H 4.20703 19.8153 16.6623
Ow 18.2079 4.15852 6.95654
H 17.812 5.00805 7.15081
H 17.6716 3.52816 7.43739
Ow 0.766568 13.4821 18.7457
H 1.5786 13.5459 18.2429
H 0.873991 14.1143 19.4563
Ow 12.5268 10.6575 4.62426
H 12.4651 9.97565 5.29317
H 11.6183 10.8472 4.3903
Ow 22.0264 6.59847 24.5121
H 22.6881 7.18427 24.88
H 22.224 6.57097 23.576
Ow 14.9232 14.156 1.26135
H 14.8385 13.7882 0.381721
H 15.7024 13.7345 1.62379
Ow 18.8733 22.869 10.4185
H 18.2137 23.3963 9.96783
H 18.7 23.0118 11.349
Ow 6.34893 9.98648 21.846
H 6.47122 9.08906 21.5363
H 5.4112 10.1496 21.7447
Ow 13.853 1.60378 1.66185
H 14.1058 1.16939 0.847212
H 13.1473 1.06143 2.01405
Ow 0.52908 25.37 12.3488
H 25.5343 25.305 11.6264
H 1.36635 25.5605 11.9259
Ow 22.4243 6.82788 21.6672
H 22.7228 6.40718 20.8609
H 21.8137 7.50393 21.3733
Ow 18.497 12.2327 15.6778
H 18.8664 12.0585 14.8121
H 17.5591 12.0714 15.5754
Ow 2.28596 7.46436 21.1414
H 2.93295 6.79705 21.3702
H 2.7934 8.15377 20.7131
Ow 20.3197 8.52949 20.9901
H 19.4949 8.2982 20.5629
H 20.1559 9.38862 21.379
Ow 23.0189 21.3805 12.099
H 22.6342 22.1033 12.5948
H 22.7265 21.5243 11.199
Ow 7.66092 4.19785 25.3979
H 8.4235 4.75443 25.24
H 7.25564 4.0961 24.5367
Ow 11.8729 14.2736 20.81
H 12.0346 14.055 19.8922
H 12.7433 14.4296 21.1765
Ow 23.2517 2.71826 14.2274
H 23.2146 2.46328 13.3055
H 22.3428 2.90674 14.461
Ow 10.5224 19.6414 1.92209
H 10.8693 20.1156 2.67777
H 9.79487 19.1285 2.27393
Ow 22.1866 20.6985 14.8573
H 21.5974 20.0539 15.2491
H 22.4316 21.2722 15.5833
Ow 10.9479 12.9609 6.64236
H 10.5997 12.223 6.14197
H 10.3878 13.6992 6.40246
Ow 7.78049 1.81252 0.722427
H 7.928 2.67898 25.9731
H 7.62699 1.24352 25.5979
Ow 8.38943 15.5869 16.3362
H 9.3281 15.752 16.4251
H 8.05823 16.3411 15.8487
Ow 3.69333 3.40659 16.537
H 3.29944 2.6146 16.9028
H 3.53085 3.34272 15.5958
Ow 22.3178 4.35016 5.88913
H 23.0511 4.73725 6.36743
H 21.7924 3.91913 6.56318
Ow 0.391758 2.80868 3.83045
H 25.945 2.09561 3.19648
H 25.4376 2.55723 4.54605
Ow 20.9172 5.58062 13.2318
H 21.5487 5.95823 13.844
H 20.0637 5.85246 13.5694
Ow 7.83338 5.76155 12.9441
H 8.4142 5.05918 13.2366
H 8.2074 6.05135 12.112
Ow 4.33169 6.58047 14.106
H 4.76294 6.50078 14.9568
H 4.71483 5.88127 13.5763
Ow 25.2806 0.655166 14.8755
H 24.5202 25.7524 15.109
H 25.5232 0.355849 13.9993
Ow 15.9871 2.52945 23.75
H 15.2787 1.98875 24.0995
H 16.2751 2.06794 22.9625
Ow 7.97268 7.67033 1.27049
H 8.65113 8.12924 1.76581
H 7.64814 8.32122 0.648199
Ow 3.17335 12.4665 8.61474
H 2.88976 13.0022 9.35551
H 2.46986 11.8281 8.49703
Ow 18.033 8.70565 8.47088
H 17.722 7.8798 8.10012
H 17.7878 9.36677 7.82357
Ow 21.9866 21.7073 9.65229
H 22.6302 21.7384 8.94443
H 21.4574 20.9328 9.46163
Ow 10.3224 22.5987 14.5486
H 9.9854 21.7897 14.1636
H 10.7779 22.3157 15.3414
Ow 5.47175 17.0576 6.62221
H 6.16136 16.409 6.76375
H 5.73735 17.8096 7.15142
Ow 15.4505 22.2611 1.12506
H 15.3241 21.3145 1.06001
H 14.5653 22.6167 1.20312
Ow 20.0451 21.8831 2.89599
H 20.009 22.8373 2.82921
H 19.2729 21.6492 3.4111
Ow 12.8841 25.3933 9.06388
H 12.0834 24.8807 9.17519
H 12.6994 0.594947 9.50071
Ow 2.14195 21.8595 17.1643
H 2.01775 21.8793 18.1133
H 1.8156 22.707 16.8619
Ow 1.86235 25.3923 19.7569
H 1.67149 25.1592 18.8484
H 2.42587 24.6859 20.0726
Ow 8.79856 25.1143 1.90251
H 8.78833 24.3093 1.38472
H 9.71875 25.2384 2.13508
Ow 15.4497 19.587 25.8492
H 14.563 19.2836 0.414088
H 15.4053 19.8926 24.9432
Ow 13.5739 11.5954 20.0368
H 13.4311 11.6903 20.9785
H 12.6935 11.5727 19.6617
Ow 23.1537 14.4984 10.1014
H 22.6312 13.7115 10.2563
H 23.6312 14.6343 10.9197
Ow 17.132 19.6093 12.7354
H 17.2766 19.7848 11.8056
H 17.6608 20.2661 13.1885
Ow 1.76012 3.73855 19.5674
H 1.01608 3.84574 20.16
H 2.34575 3.13478 20.0243
Ow 23.264 1.96687 1.40906
H 22.5902 1.55002 0.872003
H 23.2969 1.43787 2.20612
Ow 16.931 15.8187 9.33067
H 16.6269 16.7035 9.53305
H 16.1307 15.2962 9.27767
Ow 22.9659 14.3023 1.39606
H 23.913 14.4328 1.34926
H 22.821 13.4474 0.990507
Ow 8.44552 10.3602 13.1183
H 9.00061 9.59508 12.9675
H 7.87516 10.1037 13.843
Ow 21.9556 23.7931 13.1845
H 22.3596 24.2607 13.9156
H 21.0293 23.7357 13.4188
Ow 3.11418 23.6356 14.7307
H 3.09511 23.4373 13.7945
H 3.91314 24.1488 14.8511
Ow 5.90562 12.8578 5.64682
H 6.71666 13.0041 5.15994
H 5.23364 12.7653 4.97146
Ow 20.6241 3.75876 21.5917
H 20.2228 3.06629 22.1167
H 19.8835 4.24739 21.2325
Ow 24.047 20.9506 18.8324
H 23.7485 20.7169 19.7113
H 24.9807 21.1341 18.9369
Ow 22.3987 4.58892 17.3462
H 22.904 4.94183 18.0786
H 22.5172 5.22745 16.6431
Ow 5.3009 19.1037 8.42934
H 5.55912 19.9818 8.14908
H 5.34874 19.133 9.3849
Ow 20.6018 23.638 8.49635
H 21.3321 23.0304 8.61286
H 20.0527 23.5042 9.2689
Ow 5.53312 4.34574 12.8732
H 6.30358 4.91303 12.8449
H 5.13513 4.43809 12.0076
Ow 8.90677 6.03684 22.2527
H 8.92447 6.04217 23.2097
H 8.20515 6.64583 22.0222
Ow 2.64897 16.5504 8.5306
H 2.82847 15.8447 9.15191
H 1.79373 16.8902 8.79391
Ow 14.1191 20.0375 10.7255
H 14.3467 20.0872 11.6539
H 13.252 20.439 10.6692
Ow 9.29039 10.7896 21.2766
H 9.80093 10.0082 21.489
H 9.49151 10.965 20.3573
Ow 14.9774 8.09434 5.4224
H 14.9825 9.01484 5.15994
H 14.8038 7.6148 4.61238
Ow 18.0057 20.7811 4.45788
H 17.0661 20.875 4.61416
H 18.3619 20.4977 5.29994
Ow 14.1123 14.4736 8.91054
H 14.2404 13.5544 9.14456
H 14.4671 14.5474 8.02462
Ow 19.4157 11.9295 13.1081
H 20.0405 12.6471 13.0035
H 18.6356 12.2196 12.6355
Ow 6.85404 4.02496 22.669
H 5.99926 4.45326 22.6228
H 6.69897 3.1427 22.3317
Ow 2.6845 17.437 5.62897
H 2.94309 17.3309 4.71348
H 1.9395 18.0373 5.5999
Ow 12.4585 1.34503 22.8165
H 11.6049 0.926132 22.9263
H 13.0364 0.873172 23.4162
Ow 24.3853 11.1858 12.593
H 23.919 10.4609 13.0093
H 23.8005 11.9368 12.694
Ow 7.34401 16.3428 19.1088
H 7.49473 17.2631 18.8931
H 7.11632 16.3483 20.0385
Ow 23.6153 4.59233 0.571981
H 24.4568 4.48675 25.7581
H 23.4455 3.73891 0.970837
Ow 22.053 15.4234 20.5108
H 22.4901 14.7197 20.9903
H 21.1207 15.2839 20.6767
Ow 23.4857 0.556082 3.92647
H 23.7063 25.261 4.03679
H 23.6748 0.951101 4.77761
Ow 12.5806 16.0198 3.86668
H 11.6459 16.1229 3.68809
H 12.7361 16.5523 4.64673
Ow 25.3485 13.6522 8.45238
H 0.371846 13.9626 9.07953
H 24.5079 13.8883 8.84462
Ow 18.3398 20.2619 10.3429
H 18.3512 21.2182 10.3029
H 19.1537 19.9941 9.91636
Ow 1.3259 24.6099 16.5804
H 1.91218 24.1939 15.9483
H 0.757124 25.1673 16.0493
Ow 20.7033 3.19501 15.1709
H 20.4718 3.85672 14.5191
H 20.1537 2.44194 14.954
Ow 25.4813 11.7626 1.83058
H 25.5423 12.6962 1.62864
H 24.5735 11.5329 1.63229
Ow 19.4901 14.1578 0.831093
H 18.7831 13.5927 1.14263
H 20.1517 13.5522 0.496772
Ow 22.1638 0.861202 8.32104
H 23.0986 0.666375 8.25451
H 22.1159 1.81702 8.30216
Ow 15.8098 5.14896 22.0366
H 15.2439 4.95838 21.2885
H 15.6696 6.07932 22.2127
Ow 16.887 1.13735 21.4527
H 16.1236 0.579043 21.3052
H 17.5611 0.540991 21.7785
Ow 21.2128 19.103 12.1688
H 20.9512 18.2193 12.4274
H 21.027 19.1434 11.2306
Ow 25.9695 9.73312 5.78554
H 0.44561 8.90562 5.3162
H 1.0935 10.2589 5.51785
Ow 8.17685 2.01723 16.8246
H 7.51672 2.04743 16.1321
H 8.76198 1.30468 16.5674
Ow 21.9439 11.4462 4.62053
H 22.4331 11.1495 3.85313
H 21.0283 11.4317 4.34178
Ow 6.93191 12.887 20.6959
H 6.00767 13.0663 20.5232
H 7.20265 13.5807 21.2973
Ow 21.4095 9.37844 9.08077
H 21.5271 8.56428 9.57021
H 21.2697 10.0448 9.75353
Ow 22.9157 7.08183 2.22222
H 23.0196 8.02983 2.14025
H 21.9737 6.95238 2.33257
Ow 5.83619 24.795 12.5118
H 5.1044 25.3894 12.3466
H 6.61537 25.3084 12.2986
Ow 20.1218 16.6802 5.46842
H 21.0657 16.5296 5.41692
H 20.034 17.4754 5.99395
Ow 23.7884 25.9213 23.4814
H 22.8819 25.9437 23.7878
H 23.9541 1.1767 23.157
Ow 18.558 22.434 0.537581
H 19.2438 22.7607 25.5849
H 18.999 22.3016 1.37681
Ow 4.08086 12.6923 20.2905
H 4.08285 11.7421 20.1747
H 3.67608 13.0306 19.4918
Ow 15.595 5.48954 16.6985
H 15.96 4.66869 17.0289
H 16.1355 5.70363 15.938
Ow 22.0972 12.1346 25.5181
H 22.2339 11.379 0.459907
H 21.826 11.7567 24.6815
Ow 16.3823 23.5135 24.3162
H 15.6395 24.1116 24.3979
H 16.81 23.7723 23.4999
Ow 25.4892 16.3608 22.2449
H 0.413481 16.4779 21.4731
H 25.8306 15.5731 22.6681
Ow 4.77588 19.4147 11.2344
H 5.23014 20.1923 11.5587
H 5.19408 18.6846 11.6908
Ow 24.3381 8.45074 25.719
H 23.8582 8.8962 0.787478
H 24.2971 9.05404 24.977
Ow 11.0072 5.85497 2.7263
H 10.7752 6.78342 2.74669
H 10.1674 5.399 2.6702
Ow 11.6203 5.43676 12.7716
H 11.1231 4.99308 13.4588
H 11.2057 6.29581 12.692
Ow 2.77064 19.7316 7.72584
H 2.73171 20.1175 6.85074
H 3.69015 19.4923 7.84189
Ow 17.3261 13.1883 11.885
H 16.4647 13.1122 12.2953
H 17.4587 14.1302 11.778
Ow 1.45229 20.9712 12.7778
H 0.781519 21.5586 13.1261
H 2.03156 21.5414 12.2723
Ow 8.81165 3.20978 20.4362
H 7.95887 2.92818 20.105
H 9.32423 2.40357 20.4955
Ow 9.48508 25.2143 16.2362
H 9.43506 24.6085 15.4968
H 10.2059 24.8814 16.7709
Ow 11.4207 21.0743 3.99022
H 11.8037 21.9449 3.88251
H 11.3479 20.9597 4.93774
Ow 13.1808 10.1536 16.8323
H 12.7782 10.3564 17.6766
H 12.6423 9.44863 16.4728
Ow 16.4644 18.7168 6.5677
H 16.3852 17.8836 6.10335
H 16.5762 18.4703 7.48581
Ow 25.3192 4.74233 11.7619
H 25.2689 4.41431 12.6597
H 25.7463 5.59525 11.8415
Ow 4.81257 15.0398 0.389536
H 5.71823 15.13 25.7228
H 4.81067 14.2399 0.915216
Ow 6.29344 20.1321 1.30149
H 7.05949 19.8401 1.7956
H 5.93193 20.8499 1.8213
Ow 7.42311 18.1281 21.9072
H 7.15385 17.2702 22.2354
H 7.2707 18.7242 22.6404
Ow 0.481852 19 5.55629
H 25.3876 18.8474 4.94905
H 0.883428 19.8136 5.25124
Ow 2.33056 21.227 5.1966
H 2.03224 22.1231 5.04106
H 3.12178 21.1417 4.66469
Ow 3.36954 16.7798 2.91384
H 2.96014 17.267 2.19882
H 3.57496 15.9251 2.53509
Ow 23.0828 6.34684 15.0316
H 23.2029 7.21498 14.6467
H 23.9718 6.02979 15.1909
Ow 12.3308 10.2663 9.60012
H 12.7788 9.43139 9.46413
H 11.4025 10.0366 9.6418
Ow 0.418632 19.7453 0.394591
H 25.2527 19.4231 0.818038
H 1.10178 19.1345 0.671094
Ow 24.5151 24.8095 7.87286
H 24.1889 23.921 7.72959
H 25.468 24.7194 7.86532
Ow 2.90955 3.17399 13.6714
H 3.50062 3.66975 13.1047
H 2.84944 2.31188 13.2598
Ow 2.87771 4.90308 1.3782
H 3.10433 4.15477 0.826016
H 2.73168 4.52573 2.24567
Ow 19.082 9.49972 24.9247
H 19.6676 9.82587 24.2413
H 18.324 10.0832 24.8898
Ow 25.9692 3.50989 14.1232
H 25.964 4.35655 14.5697
H 1.26689 3.31616 13.9869
Ow 9.07273 22.8516 4.71251
H 8.34069 23.454 4.84475
H 8.74699 22.0065 5.02209
Ow 20.1803 16.8332 23.388
H 20.0102 17.6468 22.9131
H 19.7579 16.1549 22.861
Ow 4.04293 14.2034 23.4807
H 4.17158 14.4733 24.39
H 4.91028 14.2791 23.0829
Ow 11.6243 21.6983 16.8297
H 12.3791 21.302 16.3945
H 11.5808 21.2612 17.6802
Ow 21.349 18.4934 16.5513
H 22.1766 18.5519 17.0286
H 21.4257 17.6908 16.0354
Ow 2.66259 13.8268 3.82952
H 1.93331 13.9541 3.22274
H 3.34756 13.4193 3.29938
Ow 23.3953 20.2405 21.2869
H 22.9127 19.4191 21.3798
H 24.3108 19.998 21.4256
Ow 2.01409 15.4414 15.8131
H 2.42243 14.6346 16.127
H 2.60363 15.7584 15.1289
Ow 3.84264 11.1266 22.8722
H 3.60486 12.0538 22.86
H 3.85614 10.8946 23.8007
Ow 15.3562 23.9436 14.609
H 14.6466 24.5555 14.4128
H 15.1225 23.1454 14.1352
Ow 14.8078 5.98971 12.9766
H 14.9672 6.0551 12.035
H 15.6614 6.15562 13.3766
Ow 13.8441 4.40797 20.1984
H 13.195 4.51056 20.8944
H 13.4392 3.79934 19.5805
Ow 8.47891 4.86731 16.6802
H 9.40404 5.03572 16.5013
H 8.42757 3.91993 16.8069
Ow 0.884763 2.65685 10.311
H 1.74826 2.50006 10.6931
H 0.522513 3.37879 10.8246
Ow 3.05098 9.53972 8.95978
H 2.1943 9.91405 9.16527
H 2.95035 9.17941 8.07872
Ow 19.1609 10.8317 4.09942
H 18.5811 11.1883 3.42638
H 18.6253 10.8138 4.89259
Ow 16.338 9.37406 10.9944
H 16.1367 8.50402 10.6498
H 15.5869 9.59347 11.5458
Ow 6.70716 21.4528 15.172
H 6.92588 22.075 15.8657
H 5.87056 21.0751 15.4434
Ow 23.1157 23.2159 22.0906
H 22.4953 23.6569 21.5103
H 23.505 23.9218 22.6067
Ow 24.5042 21.1699 23.9569
H 24.8423 20.685 24.7098
H 24.7448 22.08 24.13
Ow 20.6642 4.31474 25.7966
H 20.5336 4.16848 1.10377
H 20.0586 5.02292 25.5776
Ow 24.6249 25.9226 10.2735
H 24.6832 25.3452 9.51231
H 25.1514 1.05631 10.0365
Ow 20.7432 13.9924 6.29566
H 20.528 13.1449 6.6851
H 21.1103 13.7763 5.43845
Ow 24.8692 16.4279 3.56368
H 25.4616 15.8457 3.08798
H 24.5217 17.0164 2.89349
Ow 3.92522 18.5133 17.9259
H 4.25585 18.8691 18.7507
H 3.20789 17.9347 18.1844
Ow 12.2075 7.35631 9.05168
H 11.5987 7.1772 9.76833
H 13.0474 7.01589 9.35954
Ow 4.55196 24.089 19.1987
H 5.01163 23.7396 18.4353
H 5.11991 23.8759 19.9391
Ow 21.3423 16.6948 1.53944
H 22.0672 17.2651 1.79544
H 21.719 15.8149 1.53579
Ow 5.5956 16.4745 16.6168
H 5.22348 16.5974 15.7435
H 5.25685 17.2097 17.1277
Ow 4.96453 10.7655 10.9234
H 5.21495 11.4593 11.5335
H 4.70755 10.0338 11.4845
Ow 10.5602 24.6252 12.6577
H 11.5116 24.6491 12.7608
H 10.291 23.8206 13.1008
Ow 9.36557 20.4686 24.1677
H 9.70855 19.5815 24.0597
H 10.0828 20.9554 24.5738
Ow 11.287 8.82011 15.3168
H 11.4552 8.74413 14.3775
H 10.7839 9.6296 15.4057
Ow 22.8977 15.3627 24.3771
H 22.8126 14.9022 25.2119
H 23.0079 14.6668 23.7292
Ow 9.85642 3.5002 23.1329
H 10.7107 3.76929 22.7953
H 9.85976 2.54571 23.061
Ow 14.7005 11.2563 2.72249
H 15.6043 11.5662 2.7802
H 14.6806 10.7209 1.92926
Ow 7.48136 18.7797 17.891
H 7.69155 19.5829 18.3673
H 7.3584 19.0633 16.985
Ow 4.25047 6.88164 25.2257
H 4.89554 7.56821 25.0562
H 4.1289 6.45221 24.3789
Ow 24.3897 23.6259 4.52396
H 25.3296 23.5873 4.70127
H 23.9873 23.1676 5.26175
Ow 6.56208 2.4144 14.3965
H 7.26771 2.06159 13.8544
H 6.12987 3.06006 13.8374
Ow 24.0335 18.4141 17.8012
H 23.9746 19.2297 18.2987
H 24.534 18.6458 17.0188
Ow 10.1422 17.7965 24.3754
H 10.2604 17.2617 23.5904
H 10.4789 17.2538 25.0885
Ow 18.6645 2.37514 4.58706
H 19.223 1.67253 4.25454
H 18.4114 2.08602 5.46377
Ow 5.18206 6.2837 17.0139
H 5.8458 6.50039 17.6687
H 4.49455 6.93691 17.1438
Ow 22.7363 3.76809 23.4426