1608
 Atoms. Timestep: 0
Ow 17.2135 11.1893 12.2402
H 17.6276 11.1651 13.1028
H 16.3361 10.8352 12.385
Ow 14.557 21.0543 14.2898
H 14.6531 21.1507 15.2373
H 15.4303 21.2321 13.9406
Ow 16.0452 2.51287 8.06403
H 16.548 2.69125 8.85875
H 16.2346 3.25412 7.48878
Ow 6.12968 4.15213 16.9966
H 5.43926 3.52452 16.783
H 6.90018 3.82971 16.5291
Ow 6.2562 22.914 2.84915
H 6.95865 22.6096 2.27458
H 5.6236 23.3233 2.25874
Ow 15.1863 1.90633 13.8011
H 15.0062 1.40038 14.5935
H 14.3223 2.16161 13.4778
Ow 2.10164 15.5028 16.5931
H 3.04662 15.4851 16.4416
H 1.73485 15.8511 15.7804
Ow 25.597 3.09734 20.3777
H 25.8702 2.8557 21.2627
H 25.3456 2.26884 19.9695
Ow 24.7259 17.2934 11.5033
H 25.6024 17.5818 11.2487
H 24.8778 16.5463 12.0821
Ow 13.0047 13.6934 17.9328
H 12.2663 13.8648 18.5172
H 13.7296 14.1924 18.3094
Ow 18.7994 23.0921 13.5919
H 18.3345 22.2562 13.6278
H 18.998 23.2166 12.6639
Ow 12.1133 21.1814 3.95759
H 12.361 22.0261 4.33346
H 11.9193 21.3745 3.04035
Ow 13.5574 9.64886 9.42217
H 13.1246 9.96413 8.62875
H 13.1337 8.81139 9.61008
Ow 24.7992 4.5272 17.9916
H 24.8195 3.90889 17.2612
H 25.4226 4.17117 18.6248
Ow 12.7411 21.6745 17.6773
H 12.7772 22.6117 17.4858
H 12.4004 21.6251 18.5705
Ow 21.949 2.22176 4.58753
H 22.7577 1.76291 4.36021
H 21.5032 2.35136 3.75045
Ow 14.6991 20.1926 7.62412
H 15.5902 20.3934 7.33804
H 14.7913 19.4063 8.16222
Ow 6.57865 2.75061 6.83128
H 6.97661 2.83237 7.69798
H 5.71557 2.37187 6.99826
Ow 6.57509 6.72349 17.9408
H 7.36365 6.57931 17.4177
H 6.3911 7.65795 17.845
Ow 21.2864 20.1544 24.944
H 22.2347 20.2641 24.8738
H 20.9257 20.9919 24.6531
Ow 12.6087 20.3294 9.76882
H 11.9879 20.9924 10.0708
H 12.1266 19.8325 9.10785
Ow 5.0314 23.7122 10.2069
H 4.51647 23.8643 9.41444
H 4.3856 23.6955 10.9132
Ow 25.9933 22.1745 16.3221
H 25.5134 21.4307 16.6864
H 0.662634 21.8703 15.4654
Ow 13.7172 5.38301 25.5394
H 14.547 5.40524 0.385824
H 13.8395 4.70359 24.8763
Ow 8.27295 11.7956 5.71367
H 8.36187 12.7299 5.52512
H 9.15905 11.5104 5.93661
Ow 18.1356 15.0565 0.813998
H 18.6479 14.8371 25.6661
H 17.5821 15.7873 0.538739
Ow 8.94479 21.7187 2.29665
H 9.21368 20.9445 1.80216
H 8.84655 21.4068 3.19624
Ow 2.21091 8.9479 3.9311
H 2.6678 9.77333 4.09282
H 2.68252 8.30484 4.46053
Ow 0.605724 14.0275 7.653
H 0.822085 13.6489 6.8009
H 1.24634 13.6474 8.25414
Ow 10.2236 13.7882 0.502562
H 10.0262 13.8838 25.2011
H 9.87185 14.5823 0.905062
Ow 22.0713 18.9608 8.79102
H 22.8996 19.2936 8.44551
H 21.4227 19.6152 8.53137
Ow 16.6668 20.5189 24.2979
H 17.1221 19.7944 23.8691
H 16.0555 20.0952 24.9004
Ow 22.5532 15.5554 17.5653
H 22.5657 14.6605 17.2258
H 21.9688 16.0286 16.973
Ow 14.862 11.302 3.90004
H 15.0162 12.0796 3.36359
H 15.0396 11.5892 4.79568
Ow 22.6198 3.15493 0.612018
H 22.0689 2.89284 25.5047
H 23.2745 2.46015 0.681333
Ow 19.506 23.1045 21.842
H 19.1522 22.454 21.2354
H 19.3523 22.7316 22.7101
Ow 23.1192 4.95138 20.2878
H 23.7295 4.87083 19.5548
H 22.3524 4.44585 20.0183
Ow 10.2928 20.6471 6.01541
H 9.49251 20.3976 5.55332
H 10.9704 20.6464 5.33935
Ow 8.25088 11.621 21.4822
H 7.68833 12.3953 21.5008
H 7.82956 11.0333 20.8551
Ow 20.633 11.6911 9.0541
H 21.037 11.7636 8.18938
H 21.1463 11.0195 9.5033
Ow 25.7731 18.4896 22.8275
H 25.07 17.9629 22.4473
H 25.3578 18.9568 23.5524
Ow 21.5463 19.2435 4.38937
H 22.1907 19.7098 3.8568
H 20.7029 19.4661 3.99512
Ow 13.5764 4.73941 16.359
H 13.0045 3.98645 16.2102
H 14.3937 4.35986 16.6818
Ow 12.7468 24.5543 19.11
H 12.0966 24.0669 19.6159
H 12.3934 25.4423 19.0572
Ow 3.52521 10.683 17.7635
H 3.11891 10.976 16.9479
H 4.211 10.0759 17.4855
Ow 11.1809 25.6427 8.57872
H 10.282 25.6369 8.90776
H 11.6809 25.1619 9.23822
Ow 22.7575 1.89632 8.92234
H 22.4866 2.74544 8.57332
H 22.1548 1.73153 9.64748
Ow 0.779573 9.43732 8.28866
H 1.33006 8.74063 7.93116
H 1.02608 10.2171 7.79123
Ow 18.6703 16.1426 13.1503
H 19.5346 15.7919 12.9351
H 18.7016 17.0537 12.8585
Ow 0.80364 9.67675 1.4964
H 1.2961 8.93946 1.85712
H 0.454231 10.1302 2.26353
Ow 1.46718 14.9754 3.48107
H 1.3889 14.4017 4.24333
H 0.612941 15.4018 3.4129
Ow 11.7652 10.7969 13.6524
H 11.7348 9.8571 13.4734
H 11.0521 11.164 13.1299
Ow 25.2954 8.18028 3.98412
H 0.601292 8.37962 3.9945
H 24.8726 9.02228 3.81526
Ow 15.267 13.73 2.58243
H 15.0462 14.2239 1.79277
H 16.0907 14.1138 2.88309
Ow 4.69537 2.47235 12.9176
H 4.15605 1.68263 12.8762
H 5.58183 2.14937 13.0792
Ow 17.4719 23.2882 5.27659
H 17.1901 22.4814 5.70774
H 16.6599 23.6954 4.97488
Ow 10.4171 10.9079 23.1118
H 11.106 11.1895 23.7137
H 9.63725 10.8264 23.6609
Ow 6.15081 8.8924 3.46872
H 6.41622 9.79888 3.62392
H 6.88645 8.50477 2.99458
Ow 12.212 12.048 25.1199
H 11.5392 12.6369 25.4617
H 12.9503 12.6212 24.9134
Ow 7.73667 16.5969 12.3984
H 7.16458 16.064 11.8462
H 8.02787 16.0006 13.0882
Ow 13.5192 11.0937 21.6538
H 14.3884 10.8422 21.3415
H 12.9144 10.5723 21.1259
Ow 16.2936 14.6588 16.1184
H 15.4194 14.9877 16.3277
H 16.2263 13.7105 16.2301
Ow 8.9349 9.22048 13.5259
H 8.23789 8.5679 13.5934
H 9.48636 9.06268 14.2922
Ow 17.4243 16.3409 18.9087
H 16.5658 16.2792 19.3274
H 17.9289 15.6218 19.2888
Ow 0.778173 2.30771 22.8562
H 1.42888 2.94112 23.1588
H 25.8648 2.1362 23.6251
Ow 19.1006 25.6352 17.401
H 18.7055 0.781314 17.0044
H 18.4282 24.9582 17.3247
Ow 23.9562 10.1529 25.3833
H 23.4476 10.024 0.5536
H 23.4103 10.7226 24.8413
Ow 24.2242 20.2216 11.2906
H 24.2187 20.9006 11.9653
H 24.6874 20.6196 10.5535
Ow 23.7877 13.6592 8.63316
H 24.6613 13.6539 8.24178
H 23.9343 13.4274 9.55025
Ow 9.21466 23.8071 25.67
H 8.90898 24.7074 25.5594
H 9.11565 23.4119 24.8039
Ow 17.1309 8.82073 22.9372
H 16.599 8.02632 22.9848
H 16.7431 9.32676 22.2232
Ow 14.1367 22.4064 24.3531
H 14.1704 22.7228 25.2559
H 13.2694 22.01 24.2701
Ow 9.50782 2.62746 18.6088
H 9.40135 2.92164 17.7041
H 10.4207 2.34478 18.6633
Ow 16.103 10.5565 20.7244
H 16.7007 11.2272 20.3941
H 15.8941 10.0227 19.9578
Ow 18.0037 13.0197 2.69702
H 18.1922 13.6866 2.03678
H 17.2845 12.5096 2.32431
Ow 12.9348 0.65973 1.55762
H 12.6072 0.754447 0.663212
H 13.2192 25.3778 1.6137
Ow 3.46478 21.6597 18.368
H 4.0409 21.962 17.6659
H 3.56381 20.7076 18.3665
Ow 5.24818 20.7918 4.38563
H 5.31761 21.5772 3.84286
H 5.99321 20.2515 4.12241
Ow 15.119 11.9656 6.60245
H 14.5492 12.3968 7.23935
H 15.5986 11.313 7.11264
Ow 12.4755 1.39244 6.29907
H 11.9712 1.81805 5.60567
H 12.4808 0.466143 6.05789
Ow 18.0015 3.79529 0.498947
H 18.4745 3.944 25.3105
H 17.441 3.04053 25.949
Ow 9.05237 11.5868 1.43623
H 9.39312 12.4798 1.38443
H 8.24017 11.6685 1.93612
Ow 17.0213 8.62261 6.19833
H 16.4303 9.03337 6.82936
H 16.4494 8.33143 5.48817
Ow 25.5779 2.19685 7.87741
H 25.817 2.95937 8.40429
H 25.5341 2.5289 6.98072
Ow 10.8199 7.93915 6.02298
H 10.7122 8.4337 5.21053
H 9.92732 7.72006 6.29058
Ow 0.812499 16.9787 6.29791
H 0.839392 17.0863 5.34715
H 25.6246 17.3982 6.56385
Ow 24.7327 0.940623 18.9488
H 23.8103 1.12639 18.773
H 25.0155 0.405939 18.207
Ow 2.42351 16.2639 9.00272
H 3.21436 16.6749 8.65361
H 2.60266 16.1534 9.9365
Ow 19.1468 22.9745 3.15976
H 18.6711 23.2098 3.95633
H 19.3154 23.8105 2.72514
Ow 7.41439 0.921246 13.8011
H 7.98374 1.33812 14.4479
H 7.44346 25.6203 14.0206
Ow 3.45662 14.2478 25.0733
H 3.41312 13.7179 24.2773
H 4.19238 13.8826 25.5648
Ow 22.6378 10.8682 12.5382
H 23.353 10.762 11.9111
H 23.0197 10.6245 13.3814
Ow 11.5931 22.2507 1.52527
H 12.4013 22.7371 1.68805
H 11.7766 21.7366 0.738969
Ow 11.3933 5.30649 10.6055
H 11.9125 4.51677 10.7571
H 11.2406 5.31563 9.66062
Ow 13.7783 6.84184 10.5305
H 13.0507 6.43597 11.0018
H 13.7935 6.39663 9.6833
Ow 19.6545 13.4356 17.561
H 19.6122 13.9969 16.7868
H 19.7433 12.5494 17.2104
Ow 16.8479 24.1793 15.4483
H 16.8307 23.4755 16.0968
H 15.9768 24.5728 15.4979
Ow 23.3545 9.9477 15.2443
H 23.4154 10.1648 16.1746
H 23.0635 9.03591 15.2293
Ow 22.4102 11.9562 24.0035
H 22.2692 11.884 23.0595
H 21.9362 12.7482 24.2571
Ow 15.8068 6.67553 23.4067
H 15.6333 6.45447 24.3217
H 16.2606 5.90889 23.0565
Ow 11.7411 7.03176 24.9466
H 10.9437 6.59524 24.6469
H 12.3075 6.3195 25.2432
Ow 2.71265 24.455 18.1797
H 2.08005 24.6386 17.4852
H 3.30727 25.205 18.1672
Ow 23.3345 5.77336 25.7257
H 22.5142 5.88537 25.2452
H 23.2821 4.88853 0.456726
Ow 19.079 20.2384 3.44361
H 18.959 21.1845 3.36259
H 18.2696 19.9277 3.84933
Ow 17.984 21.4334 9.86513
H 18.3794 20.708 10.3486
H 17.814 21.0764 8.99343
Ow 7.53224 25.267 3.72638
H 6.93906 24.5159 3.7409
H 6.95466 0.399333 3.75886
Ow 22.1092 12.0711 6.71992
H 22.7611 11.4217 6.45621
H 22.5563 12.6079 7.37427
Ow 23.9912 24.4604 23.6778
H 24.7072 23.8314 23.7671
H 24.2441 25.1932 24.2393
Ow 16.3561 24.9927 12.8567
H 15.6083 24.397 12.9029
H 16.0159 25.8298 13.1728
Ow 16.3142 10.2048 8.30263
H 17.0068 10.4408 8.91973
H 15.632 9.81131 8.84663
Ow 7.53558 17.329 1.55492
H 6.64195 17.2095 1.87646
H 8.00939 16.5599 1.87153
Ow 22.1312 23.6239 21.2661
H 22.0765 23.5549 20.313
H 21.2426 23.4407 21.5713
Ow 23.45 14.2091 4.32315
H 23.8128 13.3256 4.26014
H 23.3985 14.3809 5.2634
Ow 15.3352 1.63748 2.83523
H 14.5017 1.40179 2.4279
H 15.4913 0.946894 3.47941
Ow 11.746 22.0214 13.7564
H 11.1961 22.1926 12.9919
H 11.3036 22.4718 14.4759
Ow 20.5835 20.6698 6.46758
H 19.6652 20.4283 6.34653
H 20.9893 20.5044 5.61661
Ow 22.329 14.6011 22.1671
H 22.304 13.8188 21.6161
H 21.6034 14.4857 22.7806
Ow 8.0654 19.6291 4.51455
H 7.49886 19.085 5.06152
H 8.59005 19.0032 4.01532
Ow 21.1758 14.3841 2.17637
H 20.8666 14.9892 2.85061
H 20.5328 14.4614 1.47154
Ow 8.81109 14.217 17.2626
H 9.14274 14.6512 18.0485
H 8.53329 13.3524 17.5653
Ow 16.0248 4.00435 17.7077
H 16.1839 4.9332 17.8755
H 15.6201 3.68092 18.5126
Ow 19.0513 15.8709 15.884
H 19.9598 16.1671 15.9396
H 18.978 15.4841 15.0115
Ow 25.3309 16.7217 17.6753
H 25.3423 17.6285 17.3692
H 24.4131 16.4578 17.6099
Ow 4.35758 4.84918 3.79972
H 3.83855 5.08655 3.03129
H 5.24921 4.75032 3.46588
Ow 23.5074 10.3171 18.0927
H 23.6911 11.0276 18.7074
H 23.3023 9.56561 18.649
Ow 12.1186 19.7951 15.6241
H 12.3109 20.4103 16.3318
H 11.459 19.2062 15.9907
Ow 18.8194 4.15617 12.0432
H 19.3683 3.51653 11.5896
H 18.3577 3.64675 12.7092
Ow 5.19924 8.20988 11.0082
H 5.01572 8.3115 11.9421
H 4.33642 8.19861 10.5939
Ow 19.4486 3.0213 7.70008
H 20.031 3.73184 7.43157
H 19.7922 2.73626 8.54678
Ow 15.8593 5.992 15.0299
H 16.3182 6.22474 15.837
H 16.2036 5.12946 14.7982
Ow 3.93399 16.9848 4.78418
H 4.8445 17.1226 5.04534
H 3.60504 17.8621 4.58831
Ow 24.6063 6.62141 7.85672
H 24.3814 6.21553 8.69392
H 25.558 6.71949 7.88558
Ow 23.9341 9.86597 7.03337
H 23.3771 9.11067 6.84492
H 24.5885 9.53414 7.64804
Ow 17.8149 12.9937 22.0625
H 18.2813 13.4794 22.7429
H 17.4927 12.209 22.506
Ow 17.5464 25.4918 21.8664
H 16.8639 25.5024 21.1953
H 17.3349 0.601476 22.4356
Ow 12.8951 19.4609 12.5781
H 12.8583 19.884 11.7202
H 13.0698 18.54 12.3842
Ow 23.2494 6.82691 12.7705
H 23.3512 6.18958 13.4774
H 23.1967 6.29683 11.9752
Ow 2.91365 5.64722 1.60142
H 3.26928 5.02436 0.967537
H 3.49896 6.40284 1.54971
Ow 17.6456 3.41416 3.35934
H 17.2316 3.89712 4.07456
H 16.9444 2.8716 2.99858
Ow 3.72583 14.4856 20.5086
H 3.26801 13.9452 21.1525
H 4.43752 14.8945 21.001
Ow 8.72004 25.1308 9.29719
H 8.22002 24.4054 9.67135
H 8.16335 25.4696 8.59607
Ow 12.1718 14.5208 4.78671
H 12.8744 15.1535 4.93637
H 11.6176 14.5893 5.56415
Ow 19.948 6.34433 13.1345
H 20.8213 6.0254 12.9066
H 19.3976 5.5612 13.1294
Ow 14.1834 8.87235 6.26256
H 14.0681 9.80597 6.43949
H 14.5167 8.83737 5.36597
Ow 2.34182 12.0416 15.8054
H 2.82684 12.8567 15.9338
H 1.43029 12.2743 15.982
Ow 10.5476 2.93873 7.79676
H 9.93751 2.89614 7.06043
H 10.6227 3.87268 7.99254
Ow 24.3144 0.799746 4.33627
H 25.0053 1.44179 4.49944
H 24.6804 25.8475 3.67075
Ow 14.0623 17.603 8.70404
H 14.3985 16.7803 8.34839
H 13.4991 17.3378 9.43113
Ow 23.7091 25.8869 15.3704
H 22.8298 25.5666 15.5715
H 23.7982 25.7661 14.4251
Ow 6.29268 11.4483 12.4324
H 6.31353 10.6856 13.0104
H 6.83662 12.0998 12.8751
Ow 16.134 24.9829 8.44715
H 16.6535 25.2367 9.20995
H 15.595 24.2545 8.75551
Ow 4.36819 19.8224 15.2664
H 4.57321 18.972 14.8779
H 4.68952 19.759 16.1658
Ow 23.4333 22.1635 13.3541
H 23.979 22.9323 13.1886
H 23.2681 22.185 14.2967
Ow 13.2241 3.07857 23.7813
H 12.6905 2.31934 24.0158
H 12.8208 3.41784 22.9823
Ow 3.82885 1.05031 23.8931
H 4.45552 1.06633 23.1697
H 3.05166 0.627317 23.528
Ow 18.0823 0.628525 6.93325
H 18.5315 25.6156 6.38482
H 18.6677 1.38583 6.94332
Ow 25.3799 21.6699 8.92335
H 0.509538 21.2519 9.32838
H 25.7374 22.1387 8.16926
Ow 0.574579 23.4081 6.77512
H 1.31 23.9224 7.10822
H 0.982872 22.6626 6.33495
Ow 17.745 18.4514 22.8289
H 17.1046 17.7826 23.0716
H 17.5573 18.6409 21.9096
Ow 20.2893 20.4422 15.048
H 19.9833 20.8166 14.2219
H 21.1091 20.9014 15.2306
Ow 5.95174 15.4332 21.8309
H 6.16898 14.6045 22.2578
H 5.7419 16.0268 22.5518
Ow 21.9307 1.60232 19.1962
H 21.3245 2.29435 18.9321
H 22.204 1.84724 20.0803
Ow 24.793 24.5733 20.7008
H 24.7905 25.2721 20.0467
H 25.422 23.9339 20.3665
Ow 7.97966 17.52 24.3288
H 8.13304 17.3247 25.2532
H 7.02657 17.5441 24.2435
Ow 22.9489 7.69157 19.0468
H 23.3902 6.9377 19.4382
H 22.124 7.33972 18.7123
Ow 19.4786 11.4191 25.1436
H 19.5314 12.3479 24.9186
H 18.5717 11.2907 25.4216
Ow 1.62453 10.5335 11.16
H 1.8218 9.62563 10.9297
H 1.64466 11.0025 10.3258
Ow 5.25645 17.4898 13.9059
H 6.07852 17.1434 13.5588
H 4.90822 16.7825 14.4488
Ow 3.90039 16.6379 11.8636
H 4.5148 17.1035 12.431
H 3.18643 17.2595 11.7218
Ow 16.6762 6.78658 17.4879
H 17.5728 6.86558 17.8138
H 16.2862 7.64601 17.6475
Ow 3.82812 3.92343 25.4262
H 3.4071 4.33477 24.6714
H 4.71426 4.28529 25.4335
Ow 9.66907 10.943 9.52175
H 10.4718 10.9437 9.0004
H 9.39998 10.0248 9.54685
Ow 14.1146 18.6915 22.6149
H 14.8376 18.0689 22.5376
H 14.2081 19.0598 23.4935
Ow 5.56875 19.2571 20.6255
H 4.99829 19.1517 19.8641
H 5.02572 18.998 21.37
Ow 22.5081 12.8844 15.8668
H 22.1953 12.0632 16.2465
H 22.0444 12.9549 15.0324
Ow 5.97572 9.19714 16.9416
H 5.7951 9.07411 16.0097
H 6.59974 9.92236 16.9714
Ow 21.1196 17.8645 1.62814
H 21.8158 17.2652 1.35887
H 21.5809 18.6193 1.9938
Ow 21.842 9.25324 9.80675
H 22.7365 9.42202 10.1029
H 21.5277 8.55353 10.3793
Ow 8.44224 2.85163 21.7138
H 8.56543 2.23731 22.4374
H 7.79061 3.47438 22.0359
Ow 6.92526 11.6022 3.26647
H 6.51493 12.4596 3.15371
H 7.46846 11.6972 4.04887
Ow 11.726 2.56901 16.1511
H 11.5807 1.69279 15.7943
H 11.0117 3.09572 15.7924
Ow 21.2555 5.27546 8.24765
H 21.4171 5.93398 7.57203
H 22.1035 5.15779 8.67582
Ow 3.4307 18.3675 0.421137
H 2.84919 17.6243 0.581784
H 3.88872 18.1431 25.2414
Ow 8.7899 18.2353 15.9703
H 8.11474 17.7854 16.4783
H 8.62463 17.9718 15.0651
Ow 4.7187 20.7877 24.0216
H 4.98142 19.8705 24.0991
H 5.28006 21.1407 23.3313
Ow 4.28711 1.64633 8.00941
H 4.36434 0.69251 8.03174
H 3.85407 1.87138 8.83285
Ow 19.8058 25.6778 20.1099
H 20.5663 0.579086 19.8745
H 19.3546 25.5235 19.28
Ow 13.9862 16.4911 5.88075
H 14.8788 16.3067 5.58833
H 13.8272 17.3956 5.61082
Ow 20.2349 25.6997 23.316
H 20.505 0.986596 23.3604
H 20.8669 25.2365 23.8658
Ow 4.89048 21.5372 7.0272
H 4.87623 21.3672 6.08533
H 4.43114 22.371 7.12757
Ow 2.07325 21.3241 5.72346
H 2.48311 22.0443 5.24441
H 2.78434 20.9432 6.23875
Ow 5.5573 11.3286 6.06302
H 5.57597 10.3899 6.24938
H 6.45979 11.5447 5.82838
Ow 19.0221 13.8791 9.23008
H 19.6824 13.1861 9.21648
H 18.5982 13.8234 8.37371
Ow 24.6909 25.187 9.5638
H 24.5854 25.2821 10.5104
H 24.7593 24.2426 9.4236
Ow 10.1782 17.8855 3.88392
H 10.3845 17.4881 4.72996
H 10.7346 17.421 3.25862
Ow 16.3545 5.90143 25.9403
H 16.8023 6.46015 0.945275
H 16.9021 5.11855 25.8813
Ow 2.5509 12.7868 9.14359
H 2.46433 13.2568 9.97291
H 3.49213 12.7782 8.9697
Ow 8.13566 8.35447 9.87673
H 7.33119 8.29405 10.3919
H 8.0198 7.71408 9.1748
Ow 4.25716 0.833315 18.6989
H 3.60982 1.28899 19.237
H 5.08174 0.940791 19.173
Ow 9.75155 15.3519 23.9659
H 9.11192 16.0531 23.8414
H 9.77945 14.9 23.1225
Ow 9.68888 14.226 11.0426
H 9.59504 13.4237 11.5562
H 9.22214 14.0447 10.2268
Ow 8.2492 14.8948 8.44451
H 8.03884 14.8605 7.51135
H 8.24501 15.828 8.65732
Ow 22.8332 21.6539 16.1706
H 22.5138 22.3415 16.7549
H 23.2553 21.0216 16.7523
Ow 24.2519 21.8331 22.1547
H 24.3481 21.4662 23.0335
H 23.6367 21.2458 21.7155
Ow 16.2191 3.03733 11.2361
H 16.4569 2.12498 11.071
H 15.703 3.00877 12.0417
Ow 20.0172 16.8242 8.97461
H 19.3187 17.3011 9.42279
H 19.8978 15.9137 9.24479
Ow 13.3813 9.3327 23.5043
H 13.3739 9.9667 22.7872
H 13.6517 9.83955 24.27
Ow 16.9464 8.33253 12.8528
H 17.3902 9.12228 12.5437
H 17.4816 8.02764 13.5855
Ow 12.3434 12.5123 10.6185
H 12.7497 12.0107 11.3252
H 12.2546 13.3972 10.9725
Ow 11.6928 0.65831 12.0792
H 10.8203 0.890143 11.7611
H 12.1168 1.49909 12.251
Ow 21.0423 15.4256 11.7789
H 21.6758 14.7269 11.6151
H 21.4626 16.2153 11.4384
Ow 22.0896 23.382 5.84004
H 21.4227 23.8056 5.29966
H 22.6777 24.0925 6.09619
Ow 16.737 23.4096 23.3969
H 17.2183 23.5951 24.2032
H 16.9414 24.1459 22.8205
Ow 22.6794 1.4674 21.8708
H 23.3262 0.927438 22.325
H 22.2386 1.95196 22.5687
Ow 7.95213 23.4397 11.2464
H 7.8744 23.5667 12.1919
H 8.8281 23.0735 11.1246
Ow 24.0911 25.4567 6.70445
H 24.7839 24.7963 6.69368
H 24.1718 25.9029 5.86149
Ow 8.90565 18.9882 13.1931
H 8.25304 19.381 13.7728
H 9.36179 19.7346 12.8046
Ow 11.3494 25.4495 15.1605
H 12.2585 25.3984 15.4557
H 11.4092 25.4994 14.2065
Ow 15.3614 0.443924 18.5808
H 14.8207 0.398312 17.7922
H 15.5484 1.37631 18.6899
Ow 25.9238 13.9856 18.4414
H 25.7336 13.7975 17.5223
H 25.5806 13.2293 18.9172
Ow 19.0138 6.66183 24.2665
H 19.9012 6.3382 24.1116
H 19.0125 6.92793 25.186
Ow 6.46658 17.7755 5.66237
H 6.96874 16.9633 5.59619
H 6.29831 17.878 6.59907
Ow 7.01797 24.8455 6.7293
H 6.15172 25.01 6.35678
H 6.9189 24.0264 7.21453
Ow 8.93423 23.6668 18.8151
H 9.47567 23.508 18.0419
H 9.55916 23.8976 19.5024
Ow 13.5046 15.8456 16.2215
H 12.8746 16.533 16.4379
H 13.162 15.0621 16.6516
Ow 12.41 5.31945 2.49084
H 12.7714 5.07292 1.63948
H 11.9947 6.16831 2.33854
Ow 19.4181 10.1531 17.5636
H 19.4403 10.3544 16.6281
H 19.3134 9.20243 17.602
Ow 6.12201 2.0041 3.31182
H 6.46605 2.87084 3.09586
H 6.14589 1.52343 2.48441
Ow 5.22616 13.7911 2.44601
H 4.894 14.6886 2.4653
H 4.4817 13.2659 2.15239
Ow 22.5518 22.101 8.39138
H 23.5035 22.1339 8.29477
H 22.3881 22.4386 9.27197
Ow 0.978264 22.8699 24.2254
H 1.15178 23.6843 23.7532
H 1.1798 23.0744 25.1385
Ow 9.04013 4.73566 5.34443
H 8.4889 4.71808 4.56209
H 8.78116 5.53521 5.80256
Ow 15.3237 21.5797 10.5414
H 15.2909 22.3502 11.1084
H 16.253 21.4693 10.3401
Ow 25.0795 11.7468 19.8362
H 25.7707 11.1037 19.9945
H 24.4657 11.6224 20.5601
Ow 16.1545 5.91969 11.8222
H 16.3045 6.73271 12.3046
H 15.3835 6.09874 11.2839
Ow 15.88 15.1128 13.2819
H 15.8245 15.0626 14.2361
H 15.3216 15.8542 13.0477
Ow 19.483 11.1126 20.2935
H 20.3637 11.4204 20.5075
H 19.5956 10.6009 19.4924
Ow 21.4954 5.98598 23.6538
H 21.1867 5.08019 23.6758
H 21.943 6.06662 22.8116
Ow 3.18392 15.1106 6.50543
H 3.41317 15.745 5.82628
H 4.02548 14.7751 6.81434
Ow 25.2896 8.46102 13.3233
H 25.7485 7.99348 14.0212
H 24.5952 7.86184 13.0492
Ow 17.0687 0.598863 10.6418
H 16.9946 25.7609 11.4733
H 17.9523 0.400039 10.3322
Ow 24.7104 24.589 2.31832
H 24.5712 25.19 1.58644
H 25.556 24.1794 2.13509
Ow 23.832 7.82884 23.679
H 23.1363 8.06645 23.066
H 23.8828 8.56951 24.2832
Ow 17.2089 19.1185 20.1086
H 17.5134 18.3602 19.6102
H 17.9075 19.7657 20.0117
Ow 22.9697 7.10487 2.58197
H 22.9523 6.62608 1.7533
H 22.7049 7.99509 2.35038
Ow 9.72321 24.3476 5.93772
H 10.6703 24.4819 5.90261
H 9.59652 23.716 6.64577
Ow 9.34775 15.238 14.5064
H 9.98988 15.6636 15.0746
H 8.8394 14.6798 15.0948
Ow 19.9843 9.34831 6.63156
H 20.9229 9.18367 6.54049
H 19.8934 9.74622 7.49737
Ow 19.754 16.5024 4.43026
H 18.8079 16.3569 4.43314
H 19.8896 17.1868 3.77496
Ow 2.13423 20.8154 10.233
H 2.70738 20.3841 9.5992
H 2.73042 21.2944 10.8086
Ow 10.951 14.2171 7.39345
H 11.7903 14.0396 7.81796
H 10.3026 14.1097 8.08941
Ow 6.38868 17.274 17.1328
H 6.65796 17.0167 18.0145
H 5.58987 17.7845 17.2651
Ow 5.84085 1.45794 0.422275
H 6.55931 1.63651 25.4458
H 5.73193 0.507435 0.392166
Ow 20.6467 11.704 2.49559
H 20.4939 11.644 1.55258
H 21.0172 12.5773 2.62359
Ow 15.1741 24.2266 4.09416
H 14.9978 23.8071 3.25201
H 14.3535 24.1438 4.57996
Ow 3.17448 3.7694 6.2396
H 2.28342 3.49697 6.02045
H 3.52138 3.05172 6.76953
Ow 23.9577 17.3132 1.02619
H 24.5303 17.7576 0.401021
H 24.1763 16.3858 0.934634
Ow 17.3012 13.6358 6.41706
H 16.5658 13.0277 6.49134
H 16.9696 14.3478 5.86988
Ow 10.9453 4.18793 22.703
H 10.9456 3.27078 22.429
H 11.0994 4.67945 21.8962
Ow 9.67146 11.5339 12.2291
H 9.89261 11.2876 11.331
H 9.18983 10.7815 12.5727
Ow 5.8169 13.6045 7.79799
H 5.85548 12.6505 7.72952
H 6.22627 13.9197 6.9922
Ow 2.07795 16.4688 19.4796
H 2.67721 17.0604 19.0244
H 2.63104 15.7435 19.7697
Ow 10.395 16.9537 11.2483
H 11.3481 17.0271 11.299
H 10.2239 16.0132 11.2971
Ow 17.1292 3.57501 14.3162
H 17.3914 3.29893 15.1944
H 16.3515 3.05169 14.1224
Ow 9.01008 21.5245 22.9878
H 9.75306 21.3129 23.553
H 9.29997 22.2859 22.4854
Ow 7.39326 17.1426 20.0401
H 8.25381 16.751 19.8907
H 6.97528 16.5665 20.6801
Ow 21.6158 18.048 16.1869
H 20.9121 18.5349 15.7578
H 22.4008 18.573 16.0306
Ow 4.64691 10.704 22.337
H 3.84397 11.2187 22.256
H 4.68271 10.4591 23.2616
Ow 13.0626 13.7242 22.0021
H 13.5646 14.1637 21.3157
H 13.2805 12.7975 21.9026
Ow 4.24245 5.34571 13.2726
H 3.39957 5.62233 12.9131
H 4.10391 4.43606 13.5364
Ow 19.9922 9.46448 23.0736
H 20.7371 9.58899 22.4854
H 20.0791 10.1631 23.7221
Ow 1.21585 3.41569 12.4908
H 25.9335 3.14082 12.4032
H 1.53451 2.94741 13.2625
Ow 8.80271 6.12661 16.2689
H 9.06953 5.27842 15.9145
H 9.5584 6.42329 16.776
Ow 12.5651 6.12691 5.41757
H 11.9934 6.88869 5.51301
H 13.0977 6.12536 6.21294
Ow 5.6606 22.9135 21.7025
H 5.67394 22.7473 20.76
H 6.54705 23.2118 21.9062
Ow 23.8561 5.70771 5.29204
H 24.2247 6.06555 6.09973
H 24.3688 4.91707 5.12397
Ow 11.0852 7.91411 1.92799
H 11.2844 8.02653 0.998527
H 11.1925 8.78788 2.30382
Ow 14.564 25.7924 21.1404
H 14.4497 1.10293 21.0064
H 13.9485 25.573 21.8399
Ow 21.5508 7.24139 15.3966
H 20.9655 7.00718 16.1169
H 22.4066 6.90615 15.664
Ow 12.7469 14.0181 12.8176
H 13.5873 13.9397 13.2691
H 12.6941 14.9404 12.5672
Ow 10.9169 5.58193 7.93299
H 10.0226 5.90514 7.82361
H 11.397 5.94814 7.19025
Ow 11.0764 17.1927 17.1475
H 10.6789 16.673 17.8462
H 10.3356 17.6091 16.707
Ow 4.85879 24.5603 0.8815
H 3.98394 24.8098 1.17917
H 4.7172 23.7762 25.9813
Ow 14.0808 19.2345 5.07993
H 14.3649 19.6903 5.87222
H 13.2305 19.6218 4.87205
Ow 15.2404 0.836124 5.99538
H 15.2375 25.6678 5.46773
H 14.3169 1.00218 6.18451
Ow 24.8116 16.491 3.64052
H 24.204 15.7618 3.7642
H 24.5542 16.8786 2.80404
Ow 8.77692 1.58603 5.34078
H 9.12112 2.0314 4.56657
H 8.10085 2.17504 5.67576
Ow 5.78322 8.71078 6.39926
H 6.54124 8.43734 6.91585
H 6.08274 8.66574 5.49124
Ow 16.8182 0.91989 0.74705
H 16.3173 1.17533 1.52174
H 17.6201 0.531578 1.09697
Ow 22.7412 13.4875 11.2609
H 22.3484 12.6538 11.5195
H 23.476 13.6037 11.8632
Ow 21.9529 16.5647 20.151
H 22.4327 16.2924 19.3687
H 21.4978 17.3644 19.8871
Ow 24.1001 19.9009 2.55721
H 24.2496 20.0076 1.6178
H 23.9956 20.7936 2.88652
Ow 22.533 9.81241 1.95674
H 21.7256 10.3069 2.0976
H 23.197 10.2905 2.45346
Ow 8.09599 10.7385 24.6327
H 8.41085 11.0339 25.487
H 7.44192 11.3899 24.3796
Ow 10.7476 8.41328 22.5847
H 10.0898 8.19593 21.9242
H 10.7294 9.36892 22.6361
Ow 11.7181 8.05782 13.3334
H 10.8477 7.71995 13.1226
H 12.2633 7.27634 13.4245
Ow 23.1689 19.6442 20.6519
H 22.3935 19.4421 20.1284
H 23.8883 19.6561 20.0206
Ow 19.6905 12.5511 5.18507
H 20.5076 12.6902 5.66393
H 19.0983 13.2242 5.52033
Ow 8.47706 18.8101 10.0839
H 9.13914 18.7377 9.39637
H 7.67617 18.4733 9.68215
Ow 21.1793 4.93899 5.06631
H 21.2372 3.99405 4.92503
H 22.0897 5.23311 5.09821
Ow 10.6232 19.1702 8.26617
H 10.3059 19.595 7.46922
H 10.8248 18.2742 7.99657
Ow 6.17706 5.6923 25.4261
H 6.57867 5.56934 0.655933
H 5.63614 6.47596 25.5236
Ow 17.9867 13.8519 11.7354
H 18.511 13.8976 10.9359
H 17.7967 12.9201 11.8448
Ow 14.3647 23.3255 12.4924
H 13.7823 22.8047 13.0454
H 13.7776 23.7877 11.8941
Ow 4.37708 25.3335 15.2385
H 5.32546 25.2047 15.2241
H 4.06106 24.8779 14.4583
Ow 23.597 22.3143 3.74825
H 22.9875 22.6124 4.42338
H 24.0789 23.1018 3.49543
Ow 1.47761 25.9521 12.9663
H 0.587614 25.6107 13.0536
H 2.02616 25.1725 12.8792
Ow 15.2279 17.7807 2.68759
H 15.6618 17.1031 3.20604
H 14.6462 17.298 2.10036
Ow 8.93674 7.47568 20.656
H 9.59422 7.53848 19.9632
H 8.36081 8.22597 20.509
Ow 0.37942 8.83876 22.4019
H 25.1296 8.68486 22.7453
H 0.793191 9.40961 23.0494
Ow 12.6262 24.2195 10.6222
H 11.9407 23.56 10.7282
H 12.3018 24.9821 11.1011
Ow 9.16627 6.52006 11.5591
H 9.88133 6.15285 11.0394
H 8.79307 7.20467 11.0039
Ow 8.35901 7.75969 25.4977
H 8.56331 7.66949 0.798202
H 8.2143 8.69771 25.3736
Ow 0.639815 19.2242 4.3632
H 25.5651 19.3364 3.72552
H 0.719281 20.0792 4.78607
Ow 7.10732 22.3336 8.59076
H 6.60259 21.8662 7.92519
H 8.01685 22.0919 8.41596
Ow 4.95088 15.2832 15.9457
H 5.05478 14.5793 16.586
H 5.45951 16.0106 16.304
Ow 4.59436 5.88366 9.09687
H 5.02296 5.72848 8.25518
H 3.74054 6.25049 8.86738
Ow 1.02876 19.6893 20.0146
H 1.81784 19.2807 19.6587
H 0.391539 19.6416 19.3019
Ow 13.6546 5.93136 13.4712
H 14.4778 6.20344 13.0657
H 13.476 5.06885 13.0964
Ow 20.382 6.97683 10.4425
H 20.6888 6.32372 9.8136
H 20.0309 6.46315 11.1699
Ow 23.9665 6.27512 15.9164
H 23.9791 5.7647 16.726
H 24.8531 6.62805 15.8414
Ow 23.7882 18.3532 14.1083
H 23.7121 17.4983 14.5321
H 24.7192 18.5678 14.1664
Ow 11.1872 19.2366 22.1402
H 11.3703 19.8012 22.8912
H 10.2399 19.2994 22.018
Ow 25.8432 24.8333 16.4994
H 25.0243 25.1476 16.1162
H 25.843 23.8917 16.327
Ow 16.2945 4.187 21.8674
H 16.2849 3.72072 22.7033
H 15.5306 3.85272 21.3974
Ow 9.05348 5.11112 24.2493
H 9.67155 4.73893 23.6203
H 9.11283 4.53669 25.0127
Ow 13.6647 22.9827 8.5295
H 13.3029 23.6695 9.0895
H 13.5446 23.3114 7.63857
Ow 20.6622 13.5736 14.1252
H 20.41 13.8004 13.2301
H 19.9878 12.9599 14.4164
Ow 2.00393 14.1641 11.6841
H 2.52901 13.5888 12.2405
H 1.17381 14.2577 12.1514
Ow 9.84605 22.5242 8.0793
H 10.1188 22.5726 8.99553
H 10.2361 21.7124 7.7553
Ow 4.81184 13.4388 18.1528
H 4.3934 13.5879 19.0006
H 4.73239 12.4959 18.0084
Ow 24.1128 4.83293 22.8338
H 23.594 4.82346 22.0294
H 25.018 4.74099 22.5366
Ow 0.638873 3.29002 0.596426
H 25.9991 3.7905 1.36636
H 25.5649 2.6555 0.463469
Ow 18.5187 10.3141 10.0961
H 18.0801 10.6788 10.8648
H 19.1348 10.9949 9.82583
Ow 14.4325 11.0453 11.8223
H 13.7677 10.7129 12.4254
H 14.2497 10.6006 10.9947
Ow 18.5061 7.8599 8.55236
H 19.2035 7.60542 9.15654
H 17.9839 8.49504 9.04244
Ow 21.5068 23.2615 18.5556
H 20.7793 22.7754 18.9437
H 21.0996 24.0399 18.1754
Ow 19.2399 23.7737 10.9836
H 20.1617 23.7208 10.7309
H 18.7973 23.1492 10.4089
Ow 5.83454 5.19274 6.73943
H 6.24696 4.33506 6.63685
H 6.50883 5.8169 6.47112
Ow 10.4348 9.77954 16.3298
H 9.70207 10.2856 16.6808
H 10.4539 8.9841 16.8619
Ow 4.99749 16.779 2.0474
H 4.44462 17.3297 1.49303
H 4.51659 16.7092 2.87209
Ow 24.8223 16.3457 21.2849
H 25.3045 16.183 20.4742
H 25.1923 15.7253 21.9129
Ow 7.10016 25.4043 17.7622
H 6.35821 24.8518 17.5164
H 7.74495 24.7946 18.121
Ow 5.66918 23.1925 16.791
H 6.38826 23.2724 16.1643
H 4.87851 23.3184 16.2664
Ow 18.8239 2.5443 16.4506
H 19.4532 2.40134 15.7437
H 19.3348 2.95721 17.1468
Ow 19.1151 6.3924 5.82564
H 19.7277 5.76466 5.44231
H 18.2534 5.99625 5.69655
Ow 16.0893 17.5599 16.5295
H 15.2083 17.2445 16.731
H 16.0416 17.8372 15.6146
Ow 21.8486 18.4052 11.5973
H 21.8342 18.7697 10.7123
H 21.0466 18.7324 12.0047
Ow 1.61384 6.26096 12.8802
H 1.65643 6.48024 13.811
H 1.0012 5.52692 12.8344
Ow 3.02361 23.5911 20.8632
H 3.41968 24.4179 20.5878
H 3.72295 23.1338 21.3301
Ow 9.79769 23.4901 16.3582
H 10.254 24.2694 16.041
H 8.97853 23.4736 15.8633
Ow 23.0824 16.3817 9.31807
H 23.1793 15.4384 9.18762
H 23.7437 16.6024 9.97398
Ow 1.79186 25.0482 22.9389
H 1.21392 25.6393 22.4563
H 2.26892 24.5715 22.2596
Ow 3.6877 19.3586 8.37943
H 4.44663 18.8528 8.67005
H 4.05606 20.0482 7.82719
Ow 1.0719 6.37688 20.6884
H 0.67077 7.0369 21.2539
H 1.57345 5.82197 21.2857
Ow 1.31152 1.31388 10.5296
H 1.26737 1.05289 11.4494
H 1.33355 0.487801 10.0465
Ow 17.55 20.6719 13.8769
H 17.5012 20.262 14.7405
H 17.7307 19.9478 13.2775
Ow 17.521 22.788 0.760107
H 16.6307 23.0011 1.03945
H 17.9979 22.6333 1.57556
Ow 13.5928 7.63137 16.3709
H 14.0903 8.14152 17.01
H 12.7669 7.43337 16.8124
Ow 22.1728 7.71612 7.21505
H 22.9778 7.24797 7.43655
H 21.8406 8.033 8.05497
Ow 4.02312 6.33732 16.0807
H 3.07721 6.44681 16.1781
H 4.14824 6.14816 15.1507
Ow 5.53105 1.05534 21.1893
H 6.19841 26.0034 21.2629
H 5.93915 1.73318 20.6506
Ow 18.3997 7.99725 14.9404
H 18.1884 7.92677 15.8714
H 18.5825 8.92711 14.8056
Ow 21.2248 24.8037 15.6224
H 21.1306 24.3129 14.806
H 20.3343 25.0774 15.842
Ow 10.439 13.8664 21.7774
H 11.3944 13.8882 21.7217
H 10.1445 14.4481 21.0766
Ow 19.0185 7.13826 21.3724
H 18.9153 6.1952 21.4998
H 19.2622 7.23074 20.4513
Ow 13.1974 6.36627 22.6375
H 12.917 6.13042 21.7532
H 14.142 6.50124 22.5618
Ow 21.713 16.5728 6.58309
H 22.5009 16.9626 6.20435
H 21.0866 16.5468 5.85975
Ow 25.706 5.41682 2.69191
H 25.9871 4.83539 3.39843
H 0.882473 5.83299 2.38832
Ow 1.25346 10.5674 24.1981
H 2.0655 10.1789 24.5236
H 1.53832 11.3205 23.6805
Ow 15.9221 16.4194 22.8103
H 15.4805 15.8664 22.1657
H 15.6505 16.0648 23.6569
Ow 20.416 4.49863 19.1396
H 19.8326 4.43905 19.8961
H 20.2063 5.34313 18.7408
Ow 6.76981 2.54268 19.2165
H 7.17216 1.85638 18.6842
H 6.5358 3.22675 18.5891
Ow 0.750954 18.9509 14.0273
H 1.3891 18.3014 14.3226
H 1.2109 19.7876 14.0956
Ow 11.3046 16.7594 6.92503
H 12.232 16.6756 7.14686
H 10.9615 15.868 6.98705
Ow 6.15555 20.823 10.9954
H 6.00777 20.8081 11.941
H 6.74698 20.088 10.8334
Ow 11.7481 10.5113 7.36904
H 11.3391 9.72776 7.00171
H 11.9805 11.0408 6.60621
Ow 2.10925 16.096 0.78449
H 2.14901 15.6817 1.64647
H 2.57733 15.4933 25.837
Ow 24.1013 2.78151 12.5228
H 24.0576 1.85066 12.3041
H 23.7647 3.2268 11.7452
Ow 9.87276 19.2727 1.19431
H 9.05408 18.7779 1.22912
H 10.2179 19.1042 25.9478
Ow 25.223 13.2674 15.802
H 25.3458 13.8952 15.09
H 24.3069 12.9992 15.7301
Ow 8.45012 3.91363 12.9199
H 8.61733 3.58624 13.8037
H 8.90813 3.29966 12.3459
Ow 1.47737 8.14431 18.5851
H 1.18856 7.91861 17.7009
H 1.39801 7.32829 19.0791
Ow 25.9972 12.4224 0.667188