1608
 Atoms. Timestep: 0
Ow 4.14597 8.24921 9.05354
H 4.45143 8.07882 8.16253
H 3.25118 7.90962 9.06954
Ow 20.0407 12.5846 18.1367
H 19.8042 11.6807 18.3447
H 19.2635 12.9436 17.7085
Ow 3.64915 14.9281 7.84199
H 2.69477 14.8803 7.78616
H 3.81835 15.6519 8.44498
Ow 6.97355 6.83349 5.54359
H 7.75787 7.27597 5.2191
H 7.25003 5.9281 5.6852
Ow 1.4498 22.529 15.3403
H 1.38517 23.1053 14.5787
H 1.41649 21.6447 14.9757
Ow 2.87979 19.2876 5.23507
H 3.52286 18.5831 5.15565
H 3.26322 20.0183 4.75001
Ow 19.4132 6.2151 14.2576
H 18.8407 5.99813 13.5218
H 19.0914 7.06037 14.5709
Ow 24.8464 14.8268 25.6169
H 25.5298 15.4953 25.5677
H 25.0591 14.214 24.913
Ow 7.79355 11.8365 24.0201
H 8.20293 12.5188 23.4879
H 7.25951 12.3149 24.6542
Ow 7.61105 9.14946 16.9946
H 7.83206 9.41954 17.8859
H 6.68474 9.37108 16.8994
Ow 10.8871 1.33706 3.04465
H 11.5805 1.95865 3.26611
H 10.0887 1.86484 3.02554
Ow 2.63636 13.5132 17.6547
H 3.41547 13.149 18.0749
H 2.43006 12.8944 16.9542
Ow 1.52964 24.2628 17.6063
H 1.24781 25.0134 18.1292
H 2.32197 24.564 17.1616
Ow 24.1022 10.3818 20.8318
H 23.9563 11.3254 20.7651
H 23.5361 10.1017 21.5511
Ow 15.2634 16.1725 6.06023
H 14.6785 16.167 6.81789
H 14.9749 15.4304 5.52891
Ow 24.9548 1.46706 2.46367
H 25.1335 1.27383 1.54338
H 24.5854 0.655592 2.81191
Ow 3.46047 2.09805 15.587
H 3.21811 2.26097 14.6755
H 4.28203 2.57466 15.7058
Ow 8.86583 14.0231 8.07743
H 9.42444 13.5177 8.66805
H 9.32019 14.8592 7.97415
Ow 19.6706 8.07174 4.15502
H 19.8781 7.55815 4.93565
H 20.0806 8.92243 4.31144
Ow 12.8269 20.4631 19.2597
H 11.956 20.0666 19.2351
H 13.152 20.384 18.3629
Ow 23.2552 8.0409 0.802518
H 23.2249 8.94531 0.490491
H 22.3425 7.82062 0.988804
Ow 7.19128 14.1754 3.31427
H 6.84268 15.0008 2.97758
H 8.0315 14.4121 3.70699
Ow 7.9461 8.32748 25.7134
H 8.57736 7.7439 0.505061
H 8.13787 8.25424 24.7784
Ow 5.76713 23.8796 12.0704
H 5.81609 24.2759 11.2004
H 4.97769 23.339 12.0437
Ow 22.3842 22.4637 14.765
H 22.4165 21.959 13.9523
H 21.7774 21.9791 15.3246
Ow 7.98049 3.15382 20.6998
H 8.58517 3.70953 20.208
H 8.03094 2.30192 20.2662
Ow 3.77936 15.3779 16.2524
H 3.28668 14.7449 16.7748
H 3.11988 15.7992 15.7013
Ow 25.8295 1.78316 10.0719
H 25.4806 1.53692 10.9286
H 25.287 2.52158 9.79506
Ow 14.2554 25.2393 14.0264
H 13.4127 24.8689 14.289
H 14.7438 25.3284 14.8448
Ow 18.4925 12.9178 5.48411
H 17.9812 12.2827 4.98254
H 19.1972 12.4023 5.8764
Ow 2.43236 20.4352 8.08421
H 3.21892 20.2033 8.57795
H 2.64291 21.2762 7.67851
Ow 11.7936 6.26054 9.05973
H 11.4876 5.43298 8.68854
H 12.2426 6.00999 9.86707
Ow 8.65074 21.552 6.8286
H 8.10521 22.3334 6.91787
H 9.28151 21.7765 6.14452
Ow 18.3757 8.31323 15.6632
H 17.9806 8.66495 14.8654
H 17.6322 8.02141 16.1907
Ow 6.15853 6.36239 25.1997
H 5.31796 6.72698 24.9226
H 6.6837 7.12573 25.44
Ow 12.639 10.1546 4.84055
H 13.4987 10.2524 5.24995
H 12.0466 10.6517 5.4046
Ow 10.0228 0.730352 16.5966
H 9.14466 1.08214 16.7426
H 10.2872 26.0129 17.4488
Ow 22.3532 15.1559 0.738105
H 22.3578 15.5262 1.62075
H 23.2571 14.8782 0.589639
Ow 15.7363 17.4231 24.4718
H 15.111 17.0911 23.8275
H 15.5649 16.9079 25.2601
Ow 25.6917 17.7054 19.5579
H 0.518346 18.0728 18.8006
H 25.3854 18.4689 20.0473
Ow 24.547 15.7774 21.0539
H 24.3545 14.9045 20.7116
H 24.8898 16.26 20.3017
Ow 6.85651 21.7735 9.82263
H 6.38716 22.6072 9.79518
H 7.78172 22.0182 9.80419
Ow 14.0131 5.07741 10.1363
H 14.3686 5.75383 10.7127
H 13.8348 4.33717 10.7164
Ow 11.6429 2.85119 17.0747
H 11.0096 2.25579 16.674
H 11.866 2.43823 17.909
Ow 3.05483 12.1854 7.10423
H 2.52225 12.4349 7.85946
H 3.66287 12.9155 6.98773
Ow 9.52303 18.4997 13.6619
H 9.51457 18.1112 14.5367
H 9.70112 17.7651 13.0747
Ow 5.37021 21.4067 18.6072
H 5.04747 21.5033 17.7112
H 6.13512 21.9805 18.6499
Ow 7.04398 16.473 17.2911
H 7.36919 15.6216 17.5838
H 7.83275 16.9679 17.0695
Ow 15.7675 18.1071 18.5799
H 16.23 18.7804 19.0789
H 15.1266 18.5917 18.0596
Ow 25.7961 1.22253 25.2305
H 24.9686 0.745222 25.1693
H 0.721441 0.82865 24.557
Ow 20.9274 11.7333 20.9413
H 21.7089 12.1127 20.5393
H 20.3668 12.4853 21.1323
Ow 6.1811 11.2902 4.43093
H 6.50049 10.5714 3.88535
H 6.76103 11.2894 5.19245
Ow 4.41782 11.4162 12.4769
H 4.34963 10.6514 13.0484
H 4.38671 11.0568 11.5903
Ow 16.4333 8.63442 7.46954
H 17.2334 9.0035 7.84351
H 16.6084 8.5848 6.52979
Ow 14.7349 23.1944 16.3348
H 14.294 23.556 17.1037
H 14.5611 22.2541 16.3785
Ow 9.26249 8.35618 4.97655
H 10.1818 8.09646 5.03751
H 9.1643 9.04692 5.63188
Ow 14.2476 5.32626 16.2159
H 14.7705 5.93848 16.7336
H 13.6199 4.96033 16.839
Ow 18.5893 3.87293 15.3669
H 19.3488 3.326 15.1663
H 18.8219 4.73886 15.0318
Ow 24.2136 3.90977 9.652
H 23.5685 3.42879 9.13358
H 24.7259 4.39629 9.00621
Ow 15.1015 20.0571 24.5169
H 15.3273 19.1851 24.1931
H 14.3977 19.9042 25.1473
Ow 25.8711 22.0613 2.22848
H 0.776411 21.2691 2.17416
H 25.2023 21.9463 1.55343
Ow 15.0634 24.9876 4.39745
H 15.9919 25.165 4.24666
H 14.8017 24.4359 3.66037
Ow 22.8104 16.2741 6.79448
H 23.4632 16.055 6.12958
H 23.0035 15.6849 7.52371
Ow 18.2693 15.5912 19.3932
H 18.6685 16.4328 19.1727
H 18.2858 15.0959 18.5743
Ow 6.3006 20.2166 2.73425
H 5.45049 20.6078 2.9355
H 6.09959 19.308 2.50994
Ow 24.0553 24.3878 2.54247
H 23.8338 24.521 1.62082
H 23.3118 23.9025 2.9002
Ow 11.955 13.3014 20.1599
H 11.255 13.5692 19.5644
H 12.7436 13.2988 19.6175
Ow 14.0561 6.03493 22.8858
H 14.6036 5.26969 22.7098
H 13.17 5.68239 22.9676
Ow 18.1577 2.13643 6.59075
H 18.818 2.51045 7.17415
H 17.96 1.27999 6.96979
Ow 7.37827 18.449 21.422
H 6.99222 17.7664 20.8731
H 6.70474 18.6421 22.0741
Ow 15.6946 3.45271 13.3971
H 16.1718 2.69072 13.7256
H 15.0713 3.09201 12.7665
Ow 13.5181 22.5428 21.46
H 13.865 23.3639 21.1112
H 12.5687 22.6263 21.3707
Ow 23.291 9.22501 4.77124
H 23.8946 9.84981 4.36931
H 22.4791 9.71791 4.88974
Ow 24.3008 2.15055 22.3045
H 24.6356 1.27222 22.1236
H 24.1176 2.52016 21.4408
Ow 1.84891 17.4251 7.39023
H 2.16623 17.2077 8.26673
H 1.72197 16.5776 6.96384
Ow 19.3048 12.9372 1.19104
H 20.2382 12.7435 1.10461
H 18.9035 12.0946 1.40384
Ow 14.19 3.8206 7.50852
H 14.1982 3.35252 6.67361
H 13.2775 3.78374 7.79533
Ow 19.3299 17.3569 2.51205
H 19.6132 17.8018 1.71324
H 18.6671 17.9366 2.88734
Ow 4.19758 7.1504 20.2178
H 4.899 7.79432 20.1197
H 3.71746 7.43507 20.9954
Ow 13.8286 17.0344 16.4632
H 14.5204 16.5969 15.9671
H 13.9699 17.9671 16.3006
Ow 18.9053 2.11868 19.6752
H 17.9809 2.13577 19.4272
H 18.8965 2.02913 20.6282
Ow 6.85987 3.57626 0.89245
H 7.67445 3.82753 0.457077
H 6.38829 3.05922 25.8686
Ow 7.84751 24.2229 6.65116
H 7.13609 24.3494 6.02337
H 7.43618 24.3421 7.50721
Ow 13.2499 2.93924 14.9634
H 12.7622 2.63364 15.7282
H 12.9557 2.3737 14.2494
Ow 24.7578 11.1475 3.67106
H 25.3032 11.2009 2.8863
H 24.3918 12.0265 3.76919
Ow 0.924452 10.1382 6.03246
H 0.841073 9.20533 5.83497
H 0.461705 10.5769 5.31858
Ow 13.7858 19.4909 21.6762
H 13.4623 19.4242 22.5746
H 13.2992 18.8212 21.1956
Ow 6.60773 15.415 9.33781
H 5.96579 16.1247 9.35955
H 7.35448 15.7516 9.83308
Ow 19.8025 22.8945 7.94828
H 19.8031 23.499 8.69045
H 19.656 23.4524 7.18443
Ow 21.9186 22.5121 2.80558
H 22.3483 21.7429 3.17962
H 21.267 22.7648 3.45964
Ow 14.3751 11.4694 21.0728
H 14.1457 12.2861 21.5161
H 15.0188 11.7271 20.4129
Ow 14.1417 13.66 18.5231
H 14.9166 13.1169 18.6671
H 14.1398 13.8306 17.5812
Ow 24.1948 21.4779 25.6566
H 24.6158 20.9905 24.9485
H 23.2915 21.1613 25.6618
Ow 1.63817 21.3308 20.6428
H 1.02982 21.2421 19.9091
H 2.11414 20.5005 20.6616
Ow 12.4611 2.15741 19.5787
H 12.3788 2.22249 20.5301
H 13.3997 2.24455 19.4125
Ow 12.3217 23.3827 24.7692
H 12.6671 24.1771 24.362
H 13.0197 23.0905 25.3553
Ow 4.0154 5.69451 15.4005
H 4.69718 5.25369 15.9076
H 4.4264 5.88014 14.5562
Ow 19.935 15.543 24.3331
H 19.1461 15.1473 24.7038
H 19.844 16.4778 24.5177
Ow 14.6021 13.7093 23.3025
H 15.0408 13.128 23.9237
H 15.2759 13.9231 22.657
Ow 8.89953 11.0846 0.71918
H 8.66538 11.3332 25.4542
H 8.57008 10.1909 0.813934
Ow 4.81359 12.6142 2.00413
H 5.28071 13.0007 1.26346
H 4.7269 11.6885 1.77648
Ow 21.6744 9.93216 9.49564
H 21.765 10.8778 9.61297
H 22.347 9.70445 8.85373
Ow 18.7694 10.0475 7.84887
H 19.3215 10.0041 7.06819
H 18.7512 10.9765 8.07866
Ow 16.5868 22.4276 0.490684
H 17.3221 22.1513 1.03764
H 16.0767 23.0118 1.05166
Ow 11.954 14.4623 5.43568
H 12.0221 15.278 5.93189
H 12.8273 14.3327 5.06597
Ow 19.1886 9.27055 10.8403
H 19.8734 9.10209 11.4875
H 18.3718 9.06932 11.2972
Ow 7.36084 25.4048 2.59924
H 7.38833 25.3305 1.64532
H 6.75658 24.7161 2.87626
Ow 1.12752 3.69876 25.2562
H 1.8543 3.55805 25.8631
H 0.713485 2.83963 25.1743
Ow 20.5929 2.37379 14.0943
H 21.286 1.94756 14.5985
H 21.044 2.75585 13.3415
Ow 13.0771 6.53651 25.5901
H 12.7771 5.73399 26.0169
H 13.4178 6.24552 24.7442
Ow 11.6204 11.2748 23.4585
H 10.9671 11.0562 22.7939
H 11.8423 10.4356 23.8619
Ow 19.1246 12.809 8.46858
H 19.9628 13.0988 8.82864
H 18.8915 13.4832 7.83042
Ow 3.48041 11.0121 23.3497
H 3.2704 11.7699 22.8038
H 2.98645 10.291 22.9596
Ow 23.8431 5.7699 20.5872
H 23.2939 5.92198 21.3563
H 23.5203 6.39177 19.9351
Ow 13.4734 16.4955 23.3058
H 13.266 16.666 22.387
H 12.9636 17.1441 23.7912
Ow 2.06343 22.6509 23.2417
H 1.15963 22.3423 23.1775
H 2.00021 23.4827 23.7112
Ow 14.442 13.9335 4.37248
H 14.4564 14.3962 3.53467
H 14.6973 13.0368 4.15581
Ow 24.2221 4.42711 1.77559
H 24.5438 5.09643 1.17162
H 23.5168 3.99127 1.29728
Ow 12.5822 17.3989 4.54452
H 13.3816 17.8584 4.80122
H 11.9005 17.7732 5.10265
Ow 15.6462 6.29826 0.734555
H 16.5701 6.05487 0.791533
H 15.2216 5.53739 25.9675
Ow 3.83261 25.9589 12.4017
H 3.15204 25.3328 12.6487
H 4.63688 25.4406 12.3739
Ow 21.0433 20.5401 6.57884
H 21.2815 20.518 5.65204
H 20.4485 19.7986 6.69149
Ow 8.02249 8.15586 8.14593
H 7.57048 7.70664 7.43171
H 8.14134 9.05127 7.82917
Ow 12.6878 6.05516 19.9376
H 12.3958 6.08278 19.0264
H 13.6153 5.82463 19.8856
Ow 24.2504 8.20127 13.7015
H 24.3916 8.38148 12.7721
H 25.1288 8.19969 14.0818
Ow 23.2176 5.51389 14.382
H 23.5292 6.38436 14.1341
H 22.8245 5.16315 13.5829
Ow 14.4198 9.40787 23.3194
H 13.8292 8.66844 23.1757
H 14.1875 10.0369 22.6363
Ow 8.43566 4.61423 6.04436
H 8.9481 4.58108 5.23656
H 9.07964 4.49355 6.74219
Ow 4.04447 21.5014 3.65872
H 4.58084 22.2178 3.99831
H 3.68753 21.8376 2.83668
Ow 2.86804 0.611261 6.66046
H 2.21164 1.30277 6.57572
H 3.60511 0.913693 6.1299
Ow 13.014 19.6677 0.691878
H 12.5746 19.4474 25.4997
H 12.3986 20.2429 1.14644
Ow 3.00163 20.7661 24.9825
H 2.75641 21.372 24.2833
H 3.63552 20.1749 24.5765
Ow 7.92886 2.69671 12.1208
H 8.60348 2.02335 12.2085
H 7.89454 3.11557 12.9808
Ow 3.88677 25.3625 16.6279
H 3.5807 0.571338 16.2812
H 4.6613 25.155 16.1052
Ow 5.90543 14.6131 21.8268
H 5.51476 15.1707 22.4996
H 6.04186 15.197 21.0807
Ow 8.9294 6.79922 10.8474
H 9.49038 7.42598 11.3042
H 9.43356 5.98557 10.8418
Ow 3.80171 9.88954 4.97892
H 4.57491 10.4511 5.03359
H 4.08521 9.05406 5.35019
Ow 13.727 24.4517 18.9925
H 12.7996 24.6749 19.0718
H 14.1778 25.2961 18.9907
Ow 11.5986 16.036 18.0269
H 10.9881 16.5249 17.475
H 12.455 16.1816 17.6249
Ow 1.74645 19.8376 1.51515
H 2.00504 18.9246 1.64033
H 2.18706 20.1033 0.707995
Ow 16.8487 0.904945 1.59583
H 16.4529 1.61938 2.09499
H 16.1082 0.464743 1.17853
Ow 3.64655 6.98346 24.4483
H 3.14225 7.3262 25.1862
H 3.30301 7.44916 23.6859
Ow 0.841244 11.5254 9.22511
H 25.7159 11.8713 8.74832
H 0.50782 10.7456 9.66884
Ow 20.5662 8.07162 1.55851
H 20.0742 7.28211 1.33312
H 20.4207 8.18513 2.49775
Ow 23.6003 11.2546 12.1378
H 22.7078 11.3559 11.8069
H 23.8406 10.3568 11.9087
Ow 25.8599 20.2274 23.2428
H 25.6105 20.3502 22.3269
H 1.16349 20.015 23.2112
Ow 2.5232 16.907 1.75041
H 2.2595 16.6944 2.64568
H 3.4774 16.8315 1.75695
Ow 22.2376 4.81901 11.929
H 21.3775 5.10712 11.6232
H 22.2292 3.86938 11.8091
Ow 22.7765 17.0575 18.1594
H 23.1656 17.9262 18.059
H 22.6764 16.7344 17.264
Ow 17.251 25.5706 8.2121
H 17.6116 25.6629 9.09398
H 16.7033 24.787 8.25758
Ow 15.257 21.128 3.68368
H 15.2827 21.6162 4.50667
H 14.846 21.7282 3.06144
Ow 7.33475 2.39043 3.51341
H 7.27732 2.84871 2.67501
H 7.40369 1.46543 3.27706
Ow 8.82445 19.6028 1.62587
H 9.55522 18.989 1.69926
H 8.25655 19.221 0.956618
Ow 1.54044 16.7332 22.4013
H 1.61251 16.4727 23.3195
H 0.606805 16.6595 22.2035
Ow 16.032 20.871 20.1176
H 16.3045 20.9885 19.2075
H 16.7596 20.4032 20.5274
Ow 11.7649 21.4404 2.68078
H 12.1884 22.2266 2.33617
H 12.1211 21.3434 3.56392
Ow 17.5618 14.5125 25.4106
H 16.749 14.6991 25.8805
H 18.0582 13.9489 26.0041
Ow 12.0357 8.08776 6.51526
H 12.2354 8.8604 5.98671
H 12.0364 7.36275 5.89029
Ow 10.8525 9.60338 8.97019
H 10.1807 8.9807 8.69236
H 10.9638 9.43478 9.90584
Ow 24.7271 25.108 20.9632
H 25.5346 24.5944 20.9836
H 24.3052 24.8593 20.1407
Ow 14.9726 11.0615 6.23764
H 15.4464 10.4332 6.78264
H 14.7629 11.7831 6.83045
Ow 2.19501 4.23849 16.8478
H 2.44598 3.38714 16.4894
H 2.79874 4.85849 16.4387
Ow 7.41954 17.9181 25.4794
H 6.84872 18.2969 24.8109
H 6.81883 17.5514 0.498952
Ow 21.6594 24.2993 21.2551
H 21.235 24.4286 20.4069
H 21.6167 25.1569 21.678
Ow 24.2949 23.6308 16.6725
H 23.6227 23.1148 16.2275
H 23.8232 24.0928 17.3655
Ow 20.9516 23.0104 25.6753
H 21.4734 23.8128 25.663
H 20.9315 22.7513 0.967312
Ow 2.32042 11.4298 15.9663
H 1.51834 11.491 15.4475
H 2.76978 10.6574 15.6231
Ow 24.451 3.35489 15.7456
H 24.529 4.27412 15.4903
H 24.8839 2.87263 15.0411
Ow 4.30731 22.5575 1.00973
H 4.04228 23.4612 0.838414
H 3.75487 22.0317 0.431353
Ow 25.8111 7.2679 5.35452
H 0.829878 7.00494 4.70087
H 25.9599 6.67571 6.09168
Ow 22.5427 9.99034 15.5674
H 22.9409 9.66278 14.7609
H 23.0549 10.768 15.7892
Ow 25.6161 16.0819 16.6966
H 25.7239 16.9834 16.9996
H 0.597776 16.0002 15.9642
Ow 3.61425 7.85154 17.5309
H 3.74855 7.38553 18.3562
H 3.63012 7.16615 16.8629
Ow 15.8641 25.9434 16.4729
H 16.3573 0.76605 15.7883
H 15.9235 0.892734 17.2331
Ow 18.8588 1.78095 22.3827
H 19.7139 1.40924 22.5992
H 18.7162 2.45675 23.0454
Ow 17.7725 21.9247 6.21382
H 18.3785 22.4882 5.73275
H 18.3323 21.2663 6.62544
Ow 21.4396 17.4608 11.4331
H 20.8025 17.9186 10.8847
H 21.3618 17.8784 12.2909
Ow 9.19958 1.1321 6.31415
H 8.32195 1.51091 6.26431
H 9.78386 1.88765 6.37735
Ow 17.6657 25.8219 4.12164
H 18.4147 25.2423 4.26032
H 17.7395 0.465683 3.20717
Ow 23.9833 12.1943 16.1362
H 24.5027 12.5994 16.8308
H 23.7675 12.9163 15.5459
Ow 1.19239 19.8286 14.6984
H 0.447466 19.8744 14.099
H 1.93649 19.6041 14.1397
Ow 0.593356 23.7145 4.87816
H 25.6838 22.9558 5.10245
H 25.8355 24.4379 5.37127
Ow 21.863 12.56 1.31669
H 21.9609 13.3266 0.751845
H 22.139 11.8233 0.771425
Ow 24.1469 17.6347 10.4722
H 23.274 17.4213 10.802
H 23.9876 18.0615 9.63037
Ow 15.3422 5.24358 20.1378
H 15.6054 5.83554 19.4332
H 15.4621 4.36709 19.7723
Ow 7.34805 9.18422 3.02917
H 8.05677 8.76873 3.52041
H 7.14151 8.56113 2.33251
Ow 9.71052 1.39399 23.8967
H 10.0886 0.960881 24.662
H 9.30921 2.19003 24.2452
Ow 21.7578 1.02653 22.5579
H 22.1635 0.809181 23.3972
H 22.4494 1.46663 22.0638
Ow 14.4685 11.8301 2.23909
H 13.5331 12.0187 2.16348
H 14.8812 12.3989 1.58919
Ow 15.0552 18.9821 5.56893
H 15.2 18.102 5.91639
H 14.7655 19.4937 6.32429
Ow 25.6382 19.4265 6.27776
H 24.981 19.2304 6.94542
H 25.4622 18.7996 5.57619
Ow 23.3866 18.6733 8.11221
H 22.6265 19.1985 8.36265
H 23.0204 17.945 7.61057
Ow 6.78858 22.2475 22.3509
H 7.50157 22.7962 22.6777
H 6.57199 21.6729 23.0852
Ow 22.8358 16.6289 15.3621
H 23.7411 16.6136 15.6725
H 22.5143 15.7405 15.5156
Ow 6.0577 10.2582 22.5637
H 6.722 10.7331 23.0632
H 5.22495 10.6173 22.87
Ow 5.9216 13.9022 11.7493
H 6.62175 14.4457 12.1106
H 5.88424 14.143 10.8236
Ow 20.1022 25.1825 19.1851
H 19.9791 0.484503 19.3692
H 19.3709 24.9524 18.612
Ow 16.4538 20.2554 14.8871
H 16.2448 20.7526 14.0963
H 15.6452 20.2677 15.399
Ow 1.57065 7.05724 9.54174
H 0.934996 7.76298 9.66049
H 1.11292 6.40967 9.00567
Ow 24.0403 19.2166 12.7492
H 23.4936 19.9875 12.5977
H 23.7777 18.9025 13.6144
Ow 5.25331 2.09081 8.38988
H 4.36962 1.78748 8.59799
H 5.76756 1.28847 8.30027
Ow 5.75303 9.40438 19.9353
H 5.44838 10.2075 19.513
H 5.63641 9.56645 20.8715
Ow 22.1267 24.993 6.41306
H 21.6426 25.6828 6.86695
H 21.5759 24.7665 5.6637
Ow 17.8193 24.8168 22.6613
H 17.1951 24.9487 21.9477
H 18.0381 25.7011 22.9553
Ow 11.7723 11.9613 26.0153
H 11.6574 12.9115 26.0004
H 11.7109 11.6977 25.0971
Ow 24.6053 21.6906 5.47271
H 25.0839 20.9124 5.75828
H 24.0069 21.8827 6.19473
Ow 4.26755 21.814 16.2653
H 4.01114 20.9741 15.8846
H 3.56622 22.4153 16.0145
Ow 4.33606 7.45506 6.17796
H 5.22194 7.25352 5.87657
H 3.76916 7.18126 5.45693
Ow 2.54858 3.06455 12.6705
H 2.4423 3.97487 12.3944
H 1.6561 2.7214 12.7147
Ow 5.50303 2.2207 11.0419
H 5.64958 2.08022 10.1065
H 6.38129 2.24103 11.422
Ow 7.78502 20.8465 20.3048
H 7.6059 21.5371 20.9429
H 7.68188 20.0321 20.7973
Ow 12.4177 14.7079 25.5598
H 11.6762 15.169 25.9521
H 13.1675 14.9548 0.471965
Ow 22.4557 1.58814 16.5594
H 22.4999 0.838927 15.9653
H 23.0745 2.22066 16.1943
Ow 4.32746 10.2682 0.556114
H 4.18757 10.3069 25.2392
H 3.4512 10.3529 0.931925
Ow 14.0448 8.42804 8.73288
H 14.5177 8.1312 9.51036
H 14.7159 8.49134 8.05335
Ow 12.2381 17.0289 14.4992
H 11.4082 17.3524 14.8495
H 12.8198 16.989 15.2584
Ow 19.3663 18.9644 10.3183
H 18.8139 19.7426 10.245
H 18.9136 18.299 9.80002
Ow 7.08755 22.139 0.829648
H 7.35085 22.8966 25.9365
H 6.13069 22.1539 0.808819
Ow 10.4474 7.46867 21.4287
H 9.65078 7.72007 21.8961
H 10.4693 8.04481 20.6646
Ow 22.5041 21.5042 11.9332
H 23.2371 22.0985 11.7726
H 21.726 22.056 11.8542
Ow 6.86295 13.8353 25.8347
H 6.62918 14.7546 25.7066
H 7.32654 13.82 1.04284
Ow 21.3362 7.51162 20.1712
H 21.2636 8.19012 20.8424
H 20.9976 6.72106 20.5914
Ow 6.80392 5.50569 9.04919
H 6.58938 4.86632 9.72846
H 6.24101 5.27029 8.31165
Ow 6.62106 4.77593 22.7469
H 7.43986 4.61159 23.2147
H 5.9702 4.89809 23.4381
Ow 15.6215 24.548 11.901
H 15.0736 24.8714 12.6161
H 16.3102 25.2065 11.8096
Ow 17.7563 18.5598 12.8021
H 16.9427 18.7143 12.322
H 18.3977 18.3457 12.1246
Ow 17.2297 8.89739 20.2596
H 16.7149 9.66176 20.0009
H 17.1709 8.30387 19.511
Ow 3.78959 11.1951 9.77509
H 3.96055 10.3544 9.35041
H 2.84579 11.1958 9.93466
Ow 19.7719 22.8066 23.226
H 20.1614 22.8629 24.0985
H 19.1335 23.5193 23.2016
Ow 17.6234 17.6914 15.8802
H 17.1905 16.9126 15.5304
H 17.2014 17.841 16.7263
Ow 7.60875 4.91329 14.3825
H 7.15496 4.62872 15.1758
H 6.97329 5.46612 13.9277
Ow 19.3643 24.9583 13.9416
H 19.0594 25.3618 13.1289
H 20.0055 25.5772 14.2909
Ow 12.3866 17.0205 20.8509
H 11.5194 17.3897 21.0176
H 12.2922 16.5507 20.0223
Ow 4.0428 12.8111 21.2104
H 4.75216 13.3716 21.525
H 4.38788 12.413 20.4113
Ow 19.9979 18.3019 25.6971
H 19.3057 18.9577 25.6135
H 20.7969 18.7622 25.4402
Ow 1.72946 3.15304 6.36266
H 1.82946 3.40203 5.44383
H 1.12853 3.80469 6.72386
Ow 21.4644 18.5441 13.9513
H 20.7126 18.9596 14.3736
H 21.7633 17.8899 14.5829
Ow 23.222 20.0631 17.8701
H 22.2813 20.2378 17.8976
H 23.4869 20.0295 18.7894
Ow 22.5214 25.926 10.051
H 22.643 0.846361 9.27683
H 23.0662 25.1563 9.88693
Ow 15.375 22.9294 23.5109
H 14.5315 22.695 23.1239
H 15.2089 23.7544 23.9669
Ow 7.07565 10.5564 11.7889
H 6.73367 9.911 11.1703
H 6.2961 10.9445 12.1863
Ow 15.5812 21.8505 12.6971
H 15.3873 22.757 12.459
H 14.8717 21.3421 12.3043
Ow 3.42475 25.9511 19.2583
H 4.3223 0.405612 19.5802
H 3.52142 25.6751 18.3468
Ow 17.9717 20.9262 23.895
H 18.6282 21.6045 23.7367
H 18.1635 20.2501 23.2451
Ow 16.3093 5.90412 7.81996
H 16.1506 6.84478 7.74132
H 17.1879 5.77824 7.4615
Ow 7.29283 19.1697 8.41701
H 7.20248 19.491 7.51988
H 8.22937 19.2372 8.60293
Ow 20.0636 9.6981 24.9249
H 19.1715 10.0274 25.0344
H 20.1942 9.10752 25.6667
Ow 0.755294 12.9279 11.656
H 0.868516 12.6325 10.7526
H 1.55624 13.4142 11.8517
Ow 10.577 25.5085 25.9175
H 11.2685 24.8816 25.7051
H 10.8613 25.9103 1.10931
Ow 17.3174 14.143 12.7759
H 16.8507 14.5885 13.483
H 18.2336 14.1474 13.053
Ow 10.1791 18.4435 21.2334
H 10.6054 18.8697 21.977
H 9.28048 18.2922 21.5263
Ow 9.59475 24.7406 4.01522
H 10.1138 25.4983 3.74562
H 8.71971 24.9132 3.66775
Ow 11.5078 13.7672 11.0447
H 11.2859 13.3029 10.2376
H 12.4407 13.5947 11.1721
Ow 9.86436 4.03196 10.6128
H 9.04734 3.66934 10.9552
H 10.0399 3.52285 9.82146
Ow 3.06354 14.4288 11.9324
H 2.59988 14.9331 12.6009
H 3.25266 15.0635 11.2412
Ow 8.95445 21.1899 12.6837
H 9.56244 21.04 11.9597
H 8.67275 20.3135 12.9459
Ow 2.02453 12.181 4.44261
H 1.94214 11.7566 3.58861
H 1.49049 12.9721 4.37
Ow 10.2642 15.5059 1.33482
H 10.6586 16.3095 1.67365
H 9.92079 15.7508 0.475593
Ow 16.5195 3.48291 9.49703
H 17.4327 3.25636 9.32082
H 16.2432 2.86024 10.1695
Ow 7.85153 9.25527 13.9158
H 7.77333 9.88285 13.1973
H 7.0841 8.69034 13.8256
Ow 15.5255 18.5754 11.2424
H 15.7933 19.025 10.4409
H 15.82 17.6728 11.1211
Ow 20.9422 8.06933 16.8
H 21.5407 8.63203 16.3087
H 20.0876 8.21642 16.3949
Ow 2.35613 5.7028 11.9116
H 2.38962 6.22842 11.1123
H 3.08457 6.0258 12.4419
Ow 2.85562 19.2565 22.022
H 2.48592 18.3811 22.1368
H 3.67649 19.2367 22.514
Ow 9.77747 11.522 12.067
H 8.87755 11.2644 11.8669
H 10.2676 10.6998 12.0691
Ow 10.9468 21.8285 23.1113
H 10.8981 20.9356 23.4528
H 11.369 22.3296 23.809
Ow 10.4529 12.1025 3.19589
H 10.6027 11.6916 4.04731
H 9.8616 12.8318 3.38211
Ow 4.32941 4.95247 1.47641
H 4.10114 4.04429 1.67473
H 4.03886 5.44593 2.24343
Ow 10.9968 25.4201 19.4871
H 11.3068 0.628652 19.8312
H 10.3684 25.1105 20.1395
Ow 9.03714 24.8898 21.3711
H 9.33788 25.382 22.135
H 8.18768 25.2752 21.1564
Ow 12.4531 17.579 11.8062
H 11.8441 16.9466 11.4249
H 12.4856 17.3507 12.7352
Ow 13.7898 9.67205 12.3642
H 12.9622 9.19725 12.2877
H 14.4548 9.0412 12.0884
Ow 17.5121 3.79492 24.3114
H 17.6902 4.178 25.1703
H 17.5557 4.53434 23.7051
Ow 10.1183 22.3615 15.1509
H 10.9027 22.8865 14.992
H 10.3417 21.4907 14.822
Ow 4.98812 4.2034 4.86097
H 4.82963 4.59198 5.72127
H 4.24438 4.48652 4.32905
Ow 9.15981 14.9867 15.4365
H 8.54756 14.5286 16.0123
H 9.35016 15.8067 15.8922
Ow 3.23849 13.2592 25.1743
H 3.81195 13.1952 25.938
H 3.07932 12.3511 24.9169
Ow 16.8132 12.9206 9.96824
H 17.7208 12.8653 9.66912
H 16.817 12.496 10.8261
Ow 24.8449 14.9565 9.23507
H 24.8449 15.8782 9.49312
H 24.2453 14.5349 9.85074
Ow 3.99399 18.5193 16.828
H 4.02037 17.5625 16.8144
H 4.10936 18.7495 17.7499
Ow 22.0269 5.55725 16.8009
H 22.6745 5.50419 16.0981
H 21.5882 6.39622 16.6601
Ow 4.06253 25.806 0.585673
H 3.50319 25.7713 25.4389
H 3.71483 0.905461 1.09978
Ow 6.80243 5.67952 2.75155
H 7.73613 5.67615 2.96234
H 6.38128 5.29665 3.52114
Ow 1.91983 14.6894 20.2705
H 2.83422 14.6188 20.5446
H 1.59945 15.48 20.7047
Ow 17.366 14.7988 7.28855
H 16.8396 15.572 7.08567
H 17.5944 14.4329 6.43399
Ow 0.998204 14.4404 7.33714
H 25.9403 14.5444 7.99544
H 0.528187 14.2246 6.53169
Ow 21.4336 3.86948 5.31505
H 21.6487 3.29217 6.04762
H 20.9268 4.57925 5.70964
Ow 6.84881 2.54895 6.27629
H 7.31111 3.38555 6.32741
H 6.18485 2.59924 6.96393
Ow 9.80342 5.12582 19.8523
H 9.15703 5.6007 19.3299
H 10.521 4.94951 19.2438
Ow 14.6839 9.85517 17.1985
H 15.3406 10.512 17.4299
H 15.1627 9.02635 17.1992
Ow 1.33265 25.0774 2.19897
H 1.1411 25.9678 2.49351
H 1.70614 25.1889 1.32473
Ow 17.4016 23.5164 15.5699
H 18.132 24.0101 15.197
H 17.0172 23.0563 14.8237
Ow 10.8624 12.2529 8.77375
H 10.7621 11.3099 8.90365
H 10.8469 12.3672 7.82353
Ow 19.7756 14.275 3.55393
H 19.4692 13.7991 4.32586
H 19.3378 13.8465 2.81842
Ow 12.3794 22.2797 9.77528
H 12.616 21.8482 8.95429
H 11.4397 22.4447 9.69753
Ow 24.1567 12.4443 7.82531
H 23.9614 11.5109 7.74316
H 23.4833 12.7792 8.4175
Ow 6.39344 24.9103 15.7889
H 6.96194 24.7461 15.0365
H 6.81447 25.6327 16.2547
Ow 21.4618 3.33963 18.2298
H 21.8383 2.61177 17.7352
H 21.7358 4.12211 17.7514
Ow 11.2988 4.6871 22.4005
H 10.59 4.65095 23.0427
H 11.6331 3.791 22.3612
Ow 24.9079 23.2254 23.3505
H 24.576 23.4339 24.2238
H 24.5993 23.944 22.7986
Ow 10.1248 6.97944 1.05078
H 9.88712 6.21654 0.523784
H 10.0965 6.66512 1.95446
Ow 7.26374 21.7587 15.3384
H 7.2305 20.8159 15.5002
H 6.35712 22.0507 15.4335
Ow 20.1097 24.4781 10.2427
H 20.9169 24.9908 10.1997
H 19.5482 24.9648 10.846
Ow 1.82789 24.4901 20.9854
H 2.39531 24.854 20.3058
H 1.99685 25.0333 21.7552
Ow 13.9028 24.3732 6.81146
H 14.2333 23.4974 7.01111
H 14.1273 24.5104 5.89112
Ow 16.8272 24.1271 18.497
H 17.0344 23.1928 18.4739
H 16.5322 24.2853 19.3937
Ow 23.1332 6.65878 6.67218
H 22.4399 6.02745 6.47985
H 23.8511 6.12877 7.01852
Ow 19.2265 2.88463 9.49516
H 20.1015 2.91351 9.10796
H 19.2378 2.1091 10.0561
Ow 9.41155 11.2926 15.4138
H 9.69624 11.7143 14.603
H 9.64554 11.9145 16.1028
Ow 20.8501 8.16321 13.0243
H 21.755 7.9731 12.7771
H 20.5021 7.32383 13.3254
Ow 15.8987 12.2283 25.0798
H 16.219 11.4662 24.5972
H 16.6231 12.8532 25.0499
Ow 12.0991 2.00023 22.4808
H 11.3799 1.85102 23.0946
H 12.8484 1.5547 22.8761
Ow 13.8163 11.4834 10.2739
H 13.76 10.7091 9.71397
H 13.9599 11.1338 11.1533
Ow 9.81787 14.6684 3.96303
H 9.98531 15.0412 3.09747
H 10.6178 14.8435 4.45861
Ow 0.991051 3.921 3.62422
H 1.42906 4.76772 3.53791
H 1.54355 3.31372 3.1321
Ow 20.3507 16.407 5.41711
H 21.185 16.2598 5.86274
H 19.8878 17.0321 5.97487
Ow 3.60641 19.4069 13.3565
H 3.12224 18.7382 12.8721
H 3.56922 20.1826 12.7969
Ow 17.2694 21.3314 17.6864
H 18.2068 21.2717 17.8709
H 17.1734 20.9597 16.8095
Ow 11.794 13.961 22.846
H 12.1756 14.1928 21.9993
H 11.7275 13.0063 22.8259
Ow 21.7322 14.1002 16.0789
H 21.5503 13.4375 16.7452
H 20.9482 14.11 15.5299
Ow 23.3878 10.6996 25.1795
H 24.3129 10.7021 24.9335
H 22.9285 10.432 24.3835
Ow 22.5371 16.4994 23.5478
H 23.4554 16.7445 23.6618
H 22.3431 16.7134 22.6352
Ow 13.1689 2.72972 2.83829
H 13.3429 1.94586 2.3172
H 12.6579 3.29468 2.25869
Ow 10.5903 18.3086 5.91109
H 9.87074 17.9416 5.3975
H 10.6192 17.7706 6.70228
Ow 22.2378 13.5822 23.7804
H 23.1526 13.3412 23.9264
H 22.0737 13.3575 22.8645
Ow 10.8762 23.9566 6.41201
H 11.2889 23.0929 6.4064
H 11.4207 24.4789 7.00104
Ow 24.4139 14.0301 13.6813
H 25.1147 14.6765 13.5964
H 23.6556 14.4424 13.2674
Ow 5.89457 16.6856 19.8966
H 5.2681 17.354 19.6192
H 6.46278 16.5591 19.1368
Ow 5.76431 2.09334 22.2338
H 5.90372 1.37819 21.613
H 4.82422 2.26837 22.1911
Ow 22.6284 20.3121 4.13296
H 23.313 20.7769 4.61399
H 23.0679 19.5405 3.77547
Ow 8.04305 17.4144 4.67621
H 7.78363 17.365 3.75615
H 7.57759 18.1786 5.01613
Ow 1.74824 15.6773 25.0386
H 1.94556 14.7411 25.0679
H 2.06396 16.0154 25.8766
Ow 22.7829 13.276 3.76869
H 22.4754 13.1523 2.87071
H 22.0699 12.9442 4.31437
Ow 17.658 19.1475 3.91556
H 17.9394 19.1472 4.83047
H 17.9779 19.9794 3.56637
Ow 2.88071 1.19516 9.80908
H 1.93419 1.32744 9.8623
H 3.0121 25.9171 10.0845
Ow 19.7621 14.1677 13.985
H 19.8014 13.2135 13.92
H 20.4662 14.4762 13.4146
Ow 20.0979 21.6338 20.6761
H 19.7196 20.8508 21.0761
H 20.2932 21.3729 19.776
Ow 16.7659 13.6796 21.4338
H 16.6937 12.9605 20.8062
H 17.5945 13.5213 21.886
Ow 17.7035 5.55654 12.3959
H 16.9837 6.08809 12.0559
H 17.2782 4.77708 12.7534
Ow 4.39274 13.8788 4.58209
H 4.17418 14.783 4.80792
H 3.60055 13.5367 4.16779
Ow 16.9797 8.67488 4.65164
H 16.4816 8.3169 3.9168
H 17.8919 8.47172 4.44487
Ow 23.4517 3.24198 19.9023
H 23.4685 4.16411 20.1584
H 22.6656 3.15704 19.3629
Ow 14.0649 24.4761 9.6835
H 13.4396 23.7715 9.8526
H 14.7415 24.3619 10.351
Ow 4.40005 13.2986 14.5506
H 3.902 12.613 14.9956
H 4.29446 14.0709 15.1062
Ow 11.7875 4.36541 1.02234
H 11.4221 4.42917 25.7691
H 11.045 4.53444 1.6023
Ow 22.4251 25.5421 14.3776
H 22.4858 24.6019 14.2088
H 22.7771 25.951 13.5869
Ow 0.956884 8.69134 14.8115
H 1.86976 8.56044 14.5551
H 0.875805 8.23756 15.6504
Ow 12.5603 10.6131 18.8282
H 13.0245 10.9516 19.5938
H 13.2531 10.3912 18.2061
Ow 22.5351 9.59952 18.613
H 23.0084 9.61348 17.7811
H 23.1845 9.86761 19.2631
Ow 0.989645 5.52201 23.034
H 1.21469 6.4083 22.751
H 1.75519 4.99518 22.8045
Ow 7.20642 1.36732 17.3223
H 6.66254 2.13611 17.1508
H 6.84485 0.991733 18.125
Ow 0.612889 8.69401 19.7665
H 1.13106 8.86858 20.5522
H 25.4075 9.13441 19.9268
Ow 10.9191 8.43101 18.7437
H 10.1755 8.89843 19.1242
H 11.6547 9.03699 18.8331
Ow 1.41398 17.8233 12.0783
H 2.01054 17.6573 11.3484
H 1.48276 17.042 12.627
Ow 25.1323 5.93066 11.5077
H 25.4228 6.8171 11.2931
H 25.9233 5.48609 11.8125
Ow 19.5919 13.9185 21.8219
H 19.7297 14.5355 22.5406
H 19.998 14.3386 21.0637
Ow 20.1265 11.3211 14.3097
H 19.5244 10.6808 13.9306
H 20.7256 10.8001 14.8442
Ow 7.80559 12.6602 20.2517
H 6.9945 12.5361 19.7588
H 7.59453 13.3373 20.8946
Ow 5.4349 4.34008 20.0546
H 5.27394 5.27976 20.1402
H 5.64218 4.21553 19.1284
Ow 18.347 16.669 9.12444
H 18.2882 17.1691 8.31041
H 18.3717 15.7545 8.84296
Ow 25.8311 7.24158 16.9826
H 0.439119 6.32425 17.1185
H 25.7678 7.6064 17.8653
Ow 3.44661 24.1217 9.34276
H 3.27771 23.4059 9.95536
H 4.39422 24.1044 9.20875
Ow 11.8024 20.3226 14.0982
H 12.3291 20.2064 14.889
H 11.2735 19.5267 14.043
Ow 11.3427 17.8567 1.94854
H 11.8345 17.8259 2.76915
H 11.9494 18.2476 1.3197
Ow 16.7949 2.94262 3.79003
H 16.9781 3.88098 3.83643
H 16.043 2.81603 4.36867
Ow 15.9501 25.5634 20.7387
H 15.3205 25.7646 21.431
H 15.8863 0.673355 20.1339
Ow 17.8832 13.8805 17.1909
H 17.4854 14.1405 16.3601
H 17.3081 13.1935 17.5278
Ow 19.4164 20.0802 14.9129
H 19.6919 20.4846 15.7356
H 19.4654 20.7874 14.2697
Ow 1.00587 18.6325 17.0497
H 1.95676 18.5239 17.0653
H 0.820253 18.9987 16.1851
Ow 11.603 24.8108 14.7394
H 11.0419 25.1074 15.4559
H 11.1816 25.1484 13.949
Ow 14.8792 18.3022 2.68035
H 14.2217 18.7774 2.17232
H 14.9342 17.4445 2.25901
Ow 9.65499 22.1019 9.38749
H 9.2807 21.792 8.56279
H 9.52661 23.0502 9.36798
Ow 10.4076 16.4528 7.95116
H 10.0517 16.7431 8.79102
H 11.3455 16.3487 8.11106
Ow 22.65 2.14758 12.2301
H 22.6237 1.63484 11.4223
H 23.5428 2.03544 12.5566
Ow 14.6427 2.2717 5.26255
H 14.7548 1.32388 5.18974
H 14.1145 2.51009 4.50072
Ow 8.85217 14.0182 22.6426
H 9.77869 13.8 22.7435
H 8.71479 14.76 23.2319
Ow 19.3943 22.1582 12.9969
H 19.3493 23.0637 13.304
H 19.0169 22.184 12.1176
Ow 24.6119 0.46551 5.3006
H 24.3028 1.35027 5.10596
H 23.9337 25.7221 5.86404
Ow 10.0926 8.33107 16.285
H 10.7861 7.93774 15.7553
H 10.551 8.72063 17.0295
Ow 19.8089 4.47856 20.7571
H 20.3609 4.49846 21.5389
H 18.9604 4.80736 21.0541
Ow 6.1301 12.7946 7.72572
H 6.67865 12.0759 7.41142
H 5.43866 12.366 8.23008
Ow 4.25875 22.2167 21.0312
H 4.50064 21.9021 20.1602
H 5.09376 22.4141 21.4555
Ow 25.5521 3.00049 18.1345
H 25.0804 2.97664 17.3019
H 24.8641 3.00476 18.8
Ow 13.8944 7.84239 2.84144