LAMMPS (23 Jun 2022 - Update 2)
WARNING: Using I/O redirection is unreliable with parallel runs. Better use -in switch to read input file. (../lammps.cpp:530)
Reading data file ...
  orthogonal box = (0 0 0) to (26.379509 26.379509 26.379509)
  2 by 2 by 3 MPI processor grid
  reading atoms ...
  1608 atoms
  scanning bonds ...
  2 = max bonds/atom
  scanning angles ...
  1 = max angles/atom
  reading bonds ...
  1000 bonds
  reading angles ...
  500 angles
Finding 1-2 1-3 1-4 neighbors ...
  special bond factors lj:    0        0        0       
  special bond factors coul:  0        0        0       
     2 = max # of 1-2 neighbors
     1 = max # of 1-3 neighbors
     1 = max # of 1-4 neighbors
     2 = max # of special neighbors
  special bonds CPU = 0.002 seconds
  read_data CPU = 0.022 seconds
Setting atom values ...
  500 settings made for charge
Setting atom values ...
  1000 settings made for charge
Setting atom values ...
  54 settings made for charge
Setting atom values ...
  54 settings made for charge
500 atoms in group wat
54 atoms in group Li
54 atoms in group Cl
PPPM initialization ...
  extracting TIP4P info from pair style
  using 12-bit tables for long-range coulomb (../kspace.cpp:342)
  G vector (1/distance) = 0.31127036
  grid = 25 25 25
  stencil order = 5
  estimated absolute RMS force accuracy = 0.0034097995
  estimated relative force accuracy = 1.026851e-05
  using double precision KISS FFT
  3d grid and FFT values/proc = 6400 1875
Generated 0 of 6 mixed pair_coeff terms from arithmetic mixing rule
Neighbor list info ...
  update every 1 steps, delay 0 steps, check yes
  max neighbors/atom: 2000, page size: 100000
  master list distance cutoff = 12.3092
  ghost atom cutoff = 12.3092
  binsize = 6.1546, bins = 5 5 5
  1 neighbor lists, perpetual/occasional/extra = 1 0 0
  (1) pair lj/cut/tip4p/long, perpetual
      attributes: half, newton on
      pair build: half/bin/newton
      stencil: half/bin/3d
      bin: standard
Setting up cg style minimization ...
  Unit style    : real
  Current step  : 0
Per MPI rank memory allocation (min/avg/max) = 8.944 | 8.964 | 9.004 Mbytes
   Step          Temp          E_pair         E_mol          TotEng         Press     
         0   0              641.68376      3.1566538e-05  641.68379      52703.279    
      1000   0             -15695.723      94.172312     -15601.551     -5299.7128    
Loop time of 5.96284 on 12 procs for 1000 steps with 1608 atoms

93.3% CPU use with 12 MPI tasks x no OpenMP threads

Minimization stats:
  Stopping criterion = max iterations
  Energy initial, next-to-last, final = 
      641.683787181595  -15601.0710018281   -15601.550789311
  Force two-norm initial, final = 2112.4623 42.476166
  Force max component initial, final = 608.22136 9.3161348
  Final line search alpha, max atom move = 0.0026960674 0.025116928
  Iterations, force evaluations = 1000 1842

MPI task timing breakdown:
Section |  min time  |  avg time  |  max time  |%varavg| %total
---------------------------------------------------------------
Pair    | 3.3301     | 3.6683     | 4.1016     |  11.7 | 61.52
Bond    | 0.017154   | 0.018028   | 0.019111   |   0.4 |  0.30
Kspace  | 1.4834     | 1.9144     | 2.2544     |  16.1 | 32.11
Neigh   | 0.030726   | 0.03077    | 0.030824   |   0.0 |  0.52
Comm    | 0.22665    | 0.23304    | 0.23874    |   0.7 |  3.91
Output  | 7.299e-05  | 9.2422e-05 | 0.00029714 |   0.0 |  0.00
Modify  | 0          | 0          | 0          |   0.0 |  0.00
Other   |            | 0.09818    |            |       |  1.65

Nlocal:            134 ave         140 max         128 min
Histogram: 1 1 1 0 3 2 0 2 1 1
Nghost:        4116.92 ave        4183 max        4017 min
Histogram: 1 0 1 0 3 0 2 1 1 3
Neighs:        45853.6 ave       49043 max       42855 min
Histogram: 3 1 0 1 0 1 3 1 0 2

Total # of neighbors = 550243
Ave neighs/atom = 342.19092
Ave special neighs/atom = 1.8656716
Neighbor list builds = 16
Dangerous builds = 0
Finding SHAKE clusters ...
       0 = # of size 2 clusters
       0 = # of size 3 clusters
       0 = # of size 4 clusters
     500 = # of frozen angles
  find clusters CPU = 0.001 seconds
PPPM initialization ...
  extracting TIP4P info from pair style
  using 12-bit tables for long-range coulomb (../kspace.cpp:342)
  G vector (1/distance) = 0.31127036
  grid = 25 25 25
  stencil order = 5
  estimated absolute RMS force accuracy = 0.0034097995
  estimated relative force accuracy = 1.026851e-05
  using double precision KISS FFT
  3d grid and FFT values/proc = 6400 1875
Generated 0 of 6 mixed pair_coeff terms from arithmetic mixing rule
Setting up Verlet run ...
  Unit style    : real
  Current step  : 0
  Time step     : 0.001
Per MPI rank memory allocation (min/avg/max) = 8.694 | 8.714 | 8.754 Mbytes
   Step        Density          Temp          Press          TotEng    
         0   1.0219065      432.81576      1282264.9     -14267.536    
     10000   1.030085       175.47613      1175.0027     -14468.941    
Loop time of 42.8518 on 12 procs for 10000 steps with 1608 atoms

Performance: 0.020 ns/day, 1190.328 hours/ns, 233.362 timesteps/s
92.1% CPU use with 12 MPI tasks x no OpenMP threads

MPI task timing breakdown:
Section |  min time  |  avg time  |  max time  |%varavg| %total
---------------------------------------------------------------
Pair    | 21.593     | 24.267     | 26.712     |  29.6 | 56.63
Bond    | 0.0060318  | 0.0077671  | 0.0099322  |   1.0 |  0.02
Kspace  | 8.0465     | 10.488     | 13.164     |  44.9 | 24.47
Neigh   | 0          | 0          | 0          |   0.0 |  0.00
Comm    | 1.2005     | 1.2185     | 1.2423     |   1.3 |  2.84
Output  | 6.1798e-05 | 8.4155e-05 | 0.00031672 |   0.0 |  0.00
Modify  | 4.6114     | 5.1202     | 6.7264     |  22.0 | 11.95
Other   |            | 1.751      |            |       |  4.09

Nlocal:            134 ave         139 max         128 min
Histogram: 2 0 1 0 2 3 0 0 1 3
Nghost:         4126.5 ave        4191 max        4024 min
Histogram: 1 0 1 0 2 1 2 1 2 2
Neighs:        45850.9 ave       48798 max       41816 min
Histogram: 1 0 2 1 1 0 1 4 0 2

Total # of neighbors = 550211
Ave neighs/atom = 342.17102
Ave special neighs/atom = 1.8656716
Neighbor list builds = 0
Dangerous builds = 0
PPPM initialization ...
  extracting TIP4P info from pair style
  using 12-bit tables for long-range coulomb (../kspace.cpp:342)
  G vector (1/distance) = 0.3114609
  grid = 25 25 25
  stencil order = 5
  estimated absolute RMS force accuracy = 0.0033829568
  estimated relative force accuracy = 1.0187674e-05
  using double precision KISS FFT
  3d grid and FFT values/proc = 6400 1875
Generated 0 of 6 mixed pair_coeff terms from arithmetic mixing rule
Setting up Verlet run ...
  Unit style    : real
  Current step  : 10000
  Time step     : 0.01
Per MPI rank memory allocation (min/avg/max) = 8.694 | 8.714 | 8.754 Mbytes
   Step        Density          Temp          Press          TotEng    
     10000   1.030085       175.47613     -179047.46     -14468.942    
     20000   1.0395842      298.14384      457.63199     -13464.368    
Loop time of 42.6221 on 12 procs for 10000 steps with 1608 atoms

Performance: 0.203 ns/day, 118.395 hours/ns, 234.620 timesteps/s
92.5% CPU use with 12 MPI tasks x no OpenMP threads

MPI task timing breakdown:
Section |  min time  |  avg time  |  max time  |%varavg| %total
---------------------------------------------------------------
Pair    | 21.196     | 24.232     | 26.114     |  28.7 | 56.85
Bond    | 0.0063399  | 0.0076085  | 0.0082337  |   0.6 |  0.02
Kspace  | 8.3215     | 10.218     | 13.256     |  44.3 | 23.97
Neigh   | 0.0075709  | 0.0075941  | 0.0076112  |   0.0 |  0.02
Comm    | 1.2346     | 1.2581     | 1.2877     |   1.3 |  2.95
Output  | 6.1163e-05 | 7.9114e-05 | 0.00024918 |   0.0 |  0.00
Modify  | 4.6347     | 5.1434     | 6.7479     |  21.9 | 12.07
Other   |            | 1.755      |            |       |  4.12

Nlocal:            134 ave         141 max         124 min
Histogram: 1 1 0 1 1 2 2 0 1 3
Nghost:        4160.58 ave        4254 max        4042 min
Histogram: 1 0 0 3 1 1 2 2 1 1
Neighs:          46517 ave       48842 max       40756 min
Histogram: 1 0 0 0 1 2 1 0 2 5

Total # of neighbors = 558204
Ave neighs/atom = 347.14179
Ave special neighs/atom = 1.8656716
Neighbor list builds = 4
Dangerous builds = 0
PPPM initialization ...
  extracting TIP4P info from pair style
  using 12-bit tables for long-range coulomb (../kspace.cpp:342)
  G vector (1/distance) = 0.3116801
  grid = 25 25 25
  stencil order = 5
  estimated absolute RMS force accuracy = 0.003352316
  estimated relative force accuracy = 1.00954e-05
  using double precision KISS FFT
  3d grid and FFT values/proc = 6400 1875
Generated 0 of 6 mixed pair_coeff terms from arithmetic mixing rule
Setting up Verlet run ...
  Unit style    : real
  Current step  : 20000
  Time step     : 0.1
Per MPI rank memory allocation (min/avg/max) = 8.694 | 8.714 | 8.754 Mbytes
   Step        Density          Temp          Press          TotEng    
     20000   1.0395842      298.14384     -17518.259     -13464.368    
     30000   1.0825313      290.48193      79.479133     -13668.615    
Loop time of 45.1026 on 12 procs for 10000 steps with 1608 atoms

Performance: 1.916 ns/day, 12.529 hours/ns, 221.717 timesteps/s
92.2% CPU use with 12 MPI tasks x no OpenMP threads

MPI task timing breakdown:
Section |  min time  |  avg time  |  max time  |%varavg| %total
---------------------------------------------------------------
Pair    | 21.156     | 25.95      | 28.227     |  32.7 | 57.54
Bond    | 0.0058976  | 0.0076934  | 0.008705   |   0.8 |  0.02
Kspace  | 8.5483     | 10.839     | 15.631     |  50.6 | 24.03
Neigh   | 0.083094   | 0.083231   | 0.083359   |   0.0 |  0.18
Comm    | 1.278      | 1.2974     | 1.3203     |   1.1 |  2.88
Output  | 6.0992e-05 | 7.765e-05  | 0.00024394 |   0.0 |  0.00
Modify  | 4.6651     | 5.171      | 6.7735     |  21.8 | 11.47
Other   |            | 1.755      |            |       |  3.89

Nlocal:            134 ave         146 max         114 min
Histogram: 1 0 0 0 2 1 4 2 0 2
Nghost:        4267.92 ave        4337 max        4166 min
Histogram: 1 0 0 3 1 1 1 2 1 2
Neighs:        48594.9 ave       54521 max       39424 min
Histogram: 1 0 0 0 1 3 2 4 0 1

Total # of neighbors = 583139
Ave neighs/atom = 362.64863
Ave special neighs/atom = 1.8656716
Neighbor list builds = 41
Dangerous builds = 0
PPPM initialization ...
  extracting TIP4P info from pair style
  using 12-bit tables for long-range coulomb (../kspace.cpp:342)
  G vector (1/distance) = 0.30971566
  grid = 24 24 24
  stencil order = 5
  estimated absolute RMS force accuracy = 0.0038659555
  estimated relative force accuracy = 1.164221e-05
  using double precision KISS FFT
  3d grid and FFT values/proc = 5415 1152
Generated 0 of 6 mixed pair_coeff terms from arithmetic mixing rule
Setting up Verlet run ...
  Unit style    : real
  Current step  : 30000
  Time step     : 0.2
Per MPI rank memory allocation (min/avg/max) = 8.66 | 8.665 | 8.669 Mbytes
   Step        Density          Temp          Press          TotEng    
     30000   1.0825313      290.48193      5508.2507     -13668.629    
     40000   1.1066799      310.21511      243.63852     -13745.059    
Loop time of 42.9012 on 12 procs for 10000 steps with 1608 atoms

Performance: 4.028 ns/day, 5.959 hours/ns, 233.094 timesteps/s
94.9% CPU use with 12 MPI tasks x no OpenMP threads

MPI task timing breakdown:
Section |  min time  |  avg time  |  max time  |%varavg| %total
---------------------------------------------------------------
Pair    | 22.268     | 26.754     | 28.437     |  29.4 | 62.36
Bond    | 0.0061286  | 0.0076626  | 0.0086304  |   0.8 |  0.02
Kspace  | 7.9642     | 9.6538     | 14.131     |  48.9 | 22.50
Neigh   | 0.17653    | 0.17676    | 0.177      |   0.0 |  0.41
Comm    | 1.2715     | 1.2902     | 1.3148     |   1.1 |  3.01
Output  | 6.4996e-05 | 8.0335e-05 | 0.00023689 |   0.0 |  0.00
Modify  | 4.4752     | 4.763      | 4.8515     |   4.1 | 11.10
Other   |            | 0.2553     |            |       |  0.60

Nlocal:            134 ave         144 max         125 min
Histogram: 1 0 1 4 0 3 0 1 1 1
Nghost:        4310.75 ave        4333 max        4270 min
Histogram: 1 1 0 0 0 2 2 2 1 3
Neighs:        49680.6 ave       54159 max       43403 min
Histogram: 1 0 0 1 2 3 1 1 2 1

Total # of neighbors = 596167
Ave neighs/atom = 370.75062
Ave special neighs/atom = 1.8656716
Neighbor list builds = 86
Dangerous builds = 0
PPPM initialization ...
  extracting TIP4P info from pair style
  using 12-bit tables for long-range coulomb (../kspace.cpp:342)
  G vector (1/distance) = 0.31024698
  grid = 24 24 24
  stencil order = 5
  estimated absolute RMS force accuracy = 0.0037821256
  estimated relative force accuracy = 1.1389759e-05
  using double precision KISS FFT
  3d grid and FFT values/proc = 5415 1152
Generated 0 of 6 mixed pair_coeff terms from arithmetic mixing rule
Setting up Verlet run ...
  Unit style    : real
  Current step  : 40000
  Time step     : 0.5
Per MPI rank memory allocation (min/avg/max) = 8.661 | 8.665 | 8.669 Mbytes
   Step        Density          Temp          Press          TotEng    
     40000   1.1066799      310.21511      1494.8142     -13745.06     
     50000   1.1165776      301.33832     -458.73088     -13817.889    
Loop time of 44.1769 on 12 procs for 10000 steps with 1608 atoms

Performance: 9.779 ns/day, 2.454 hours/ns, 226.363 timesteps/s
94.5% CPU use with 12 MPI tasks x no OpenMP threads

MPI task timing breakdown:
Section |  min time  |  avg time  |  max time  |%varavg| %total
---------------------------------------------------------------
Pair    | 22.963     | 27.456     | 29.152     |  29.1 | 62.15
Bond    | 0.0059981  | 0.0077941  | 0.010096   |   1.1 |  0.02
Kspace  | 8.1919     | 9.889      | 14.377     |  48.5 | 22.38
Neigh   | 0.44654    | 0.44675    | 0.44688    |   0.0 |  1.01
Comm    | 1.307      | 1.3269     | 1.3457     |   1.0 |  3.00
Output  | 6.1198e-05 | 7.6645e-05 | 0.00023227 |   0.0 |  0.00
Modify  | 4.5067     | 4.7923     | 4.8815     |   4.1 | 10.85
Other   |            | 0.2584     |            |       |  0.58

Nlocal:            134 ave         143 max         124 min
Histogram: 2 1 1 1 0 0 2 2 2 1
Nghost:        4304.17 ave        4373 max        4227 min
Histogram: 1 2 0 1 2 0 2 1 1 2
Neighs:        50104.3 ave       56005 max       43905 min
Histogram: 1 0 1 3 2 2 0 0 1 2

Total # of neighbors = 601252
Ave neighs/atom = 373.91294
Ave special neighs/atom = 1.8656716
Neighbor list builds = 215
Dangerous builds = 0
PPPM initialization ...
  extracting TIP4P info from pair style
  using 12-bit tables for long-range coulomb (../kspace.cpp:342)
  G vector (1/distance) = 0.31046107
  grid = 24 24 24
  stencil order = 5
  estimated absolute RMS force accuracy = 0.0037488231
  estimated relative force accuracy = 1.128947e-05
  using double precision KISS FFT
  3d grid and FFT values/proc = 5415 1152
Generated 0 of 6 mixed pair_coeff terms from arithmetic mixing rule
Setting up Verlet run ...
  Unit style    : real
  Current step  : 0
  Time step     : 1
Per MPI rank memory allocation (min/avg/max) = 8.661 | 8.666 | 8.669 Mbytes
   Step        Density          Temp          Press          TotEng    
         0   1.1165776      301.33832     -1005.1572     -13817.889    
    100000   1.1126665      299.14813      242.9445      -13852.569    
    200000   1.1193645      288.53009     -205.00825     -13984.892    
    300000   1.1034275      292.51741      541.07627     -13938.526    
    400000   1.1121016      307.93418     -284.33653     -13925.508    
    500000   1.1061018      286.77436     -468.83729     -13895.982    
    600000   1.1052202      297.66031     -289.47415     -13888.55     
    700000   1.1077258      302.09066     -896.33805     -13941.321    
    800000   1.126635       302.74364      845.2849      -13958.398    
    900000   1.1073496      296.02491      506.37047     -13959.166    
   1000000   1.1005536      297.19852     -524.40925     -13861.379    
   1100000   1.109446       301.5936      -165.54445     -13925.038    
   1200000   1.1106827      301.8644       14.818161     -13941.331    
   1300000   1.1248239      295.58731      1130.4334     -13900.607    
   1400000   1.1165737      299.84632      457.73894     -13954.257    
   1500000   1.1041127      296.66857     -480.91431     -13980.265    
   1600000   1.1242085      311.20424      453.98371     -13900.478    
   1700000   1.1014921      299.30824     -233.61675     -13863.593    
   1800000   1.1181409      298.77969     -49.742914     -13941.13     
   1900000   1.116532       313.52971      236.10321     -13913.208    
   2000000   1.1206986      295.28818     -518.8437      -13958.072    
   2100000   1.1222019      285.75048      532.2995      -13995.434    
   2200000   1.1282882      293.42577      531.47255     -13938.214    
   2300000   1.113273       297.92696      11.262474     -13851.126    
   2400000   1.1149243      295.07467     -233.69635     -13941.806    
   2500000   1.1162092      293.90061     -399.08181     -13942.414    
   2600000   1.113315       285.09594      540.58694     -13994.191    
   2700000   1.1272056      289.20169      89.519277     -13892.502    
   2800000   1.1134587      302.12255     -1813.2371     -13876.041    
   2900000   1.1199523      294.86599     -655.47972     -13932.521    
   3000000   1.1325197      303.5678       214.29221     -13951.547    
   3100000   1.1124526      293.14303     -1184.4207     -13908.484    
   3200000   1.1225136      298.54571      1232.7091     -13890.144    
   3300000   1.111414       290.53154      267.91292     -13998.639    
   3400000   1.1087649      294.78349      433.36015     -13971.291    
   3500000   1.1156443      291.60973     -1112.0897     -13919.223    
   3600000   1.1058213      290.01196     -502.72761     -13940.704    
   3700000   1.1171395      296.13518     -648.25335     -13981.185    
   3800000   1.1106996      305.58532     -790.3651      -13943.034    
   3900000   1.1142104      296.72604      636.49113     -13922.389    
   4000000   1.1325508      297.31038      79.875171     -13961.17     
   4100000   1.1106809      282.19253     -750.15088     -13935.571    
   4200000   1.1166413      297.52499      376.80382     -13895.293    
   4300000   1.1002292      300.46971     -3.4348681     -13812.557    
   4400000   1.1165119      288.2606       1417.6217     -13947.458    
   4500000   1.1290418      304.01959     -1052.936      -13909.445    
   4600000   1.1104226      298.47013      444.27736     -13885.017    
   4700000   1.1140912      297.57276      1386.7343     -13894.89     
   4800000   1.126703       298.9959      -94.435069     -13916.567    
   4900000   1.1124903      306.14403     -23.721899     -13923.743    
   5000000   1.114121       295.18002     -1267.3912     -13976.309    
Loop time of 22835.5 on 12 procs for 5000000 steps with 1608 atoms

Performance: 18.918 ns/day, 1.269 hours/ns, 218.957 timesteps/s
94.0% CPU use with 12 MPI tasks x no OpenMP threads

MPI task timing breakdown:
Section |  min time  |  avg time  |  max time  |%varavg| %total
---------------------------------------------------------------
Pair    | 12772      | 13875      | 14584      | 560.4 | 60.76
Bond    | 2.9748     | 3.7831     | 4.1711     |  16.7 |  0.02
Kspace  | 4593.6     | 5305.6     | 6408       | 907.6 | 23.23
Neigh   | 429.59     | 429.81     | 429.99     |   0.6 |  1.88
Comm    | 674.85     | 684.98     | 691.53     |  19.3 |  3.00
Output  | 0.0031444  | 0.0039476  | 0.012424   |   4.1 |  0.00
Modify  | 2265.9     | 2406.9     | 2449.1     |  90.3 | 10.54
Other   |            | 129.4      |            |       |  0.57

Nlocal:            134 ave         142 max         127 min
Histogram: 2 0 2 2 0 1 3 0 0 2
Nghost:        4312.92 ave        4382 max        4243 min
Histogram: 2 1 2 1 0 0 1 0 3 2
Neighs:        49972.1 ave       56209 max       45933 min
Histogram: 2 3 1 0 1 2 1 0 1 1

Total # of neighbors = 599665
Ave neighs/atom = 372.926
Ave special neighs/atom = 1.8656716
Neighbor list builds = 203863
Dangerous builds = 0
PPPM initialization ...
  extracting TIP4P info from pair style
  using 12-bit tables for long-range coulomb (../kspace.cpp:342)
  G vector (1/distance) = 0.31040812
  grid = 24 24 24
  stencil order = 5
  estimated absolute RMS force accuracy = 0.0037570331
  estimated relative force accuracy = 1.1314194e-05
  using double precision KISS FFT
  3d grid and FFT values/proc = 5415 1152
Generated 0 of 6 mixed pair_coeff terms from arithmetic mixing rule
Setting up Verlet run ...
  Unit style    : real
  Current step  : 0
  Time step     : 1
Per MPI rank memory allocation (min/avg/max) = 8.661 | 8.666 | 8.67 Mbytes
   Step        Density          Temp          Press          TotEng    
         0   1.114121       295.18002     -1173.8852     -13976.309    
    100000   1.1148256      307.73428      335.91808     -13932.07     
    200000   1.1288002      295.31233      977.11357     -14006.827    
    300000   1.1041707      295.52889      204.59656     -13965.164    
    400000   1.1037301      292.64228     -133.65974     -14014.326    
    500000   1.1016337      292.61985     -463.73398     -13913.401    
    600000   1.1124235      305.41476     -380.52112     -13905.307    
    700000   1.1050938      302.87871     -599.03088     -13963.093    
    800000   1.1109176      303.78413      1186.0717     -13930.573    
    900000   1.1109324      303.93328      80.046591     -13848.467    
   1000000   1.0975065      311.19099     -1375.8912     -13872.856    
   1100000   1.1224272      299.42615      372.84639     -13971.826    
   1200000   1.1155328      299.60332     -1140.6904     -13970.615    
   1300000   1.1096926      298.48914     -190.03675     -13961.028    
   1400000   1.1116906      287.23329     -4.7936986     -14002.683    
   1500000   1.1027903      309.91019      2.301105      -13863.064    
   1600000   1.1076564      298.80956     -109.67065     -13931.365    
   1700000   1.1092678      299.87939     -369.77478     -13930.819    
   1800000   1.1044803      315.20268     -506.98133     -13845.456    
   1900000   1.1048557      290.03643     -52.555621     -13966.126    
   2000000   1.1041686      286.48617     -1077.2095     -13972.178    
   2100000   1.1239121      298.30889      835.83833     -13945.615    
   2200000   1.1232059      287.97132     -31.900843     -13942.606    
   2300000   1.1167863      294.31847     -387.34096     -13916.601    
   2400000   1.1330513      302.06443      1169.0221     -13868.474    
   2500000   1.1056754      295.28018      264.39179     -13982.75     
   2600000   1.100467       290.11747     -2185.7912     -13919.891    
   2700000   1.1034048      306.87883      79.636541     -13822.577    
   2800000   1.1120081      290.00349      17.243694     -13900.329    
   2900000   1.1250272      302.16392      628.0967      -13920.945    
   3000000   1.1070459      292.87048     -245.50736     -13894.546    
   3100000   1.1271454      306.13752      22.884057     -13906.711    
   3200000   1.1046154      289.25508      26.665022     -13917.943    
   3300000   1.1174767      292.26065     -242.98591     -13889.034    
   3400000   1.1151286      307.70808     -499.25897     -13929.433    
   3500000   1.1277742      300.29953      1196.9796     -13893.886    
   3600000   1.1185561      294.05899     -369.44546     -13991.147    
   3700000   1.1175006      299.65353      474.87581     -13940.631    
   3800000   1.0894639      299.49954     -74.401387     -13925.465    
   3900000   1.0944802      311.87695     -155.76007     -13875.157    
   4000000   1.1260179      296.35977      634.64418     -13925.163    
   4100000   1.1073796      293.56611      654.64307     -13911.905    
   4200000   1.1140621      302.75247      188.36027     -13935.578    
   4300000   1.1079042      291.55471      689.42487     -13893.154    
   4400000   1.1194104      288.68874      314.3422      -13983.61     
   4500000   1.1082109      308.93751      717.31396     -13851.944    
   4600000   1.1225749      308.26371      689.18893     -13927.856    
   4700000   1.1106835      299.84279     -1061.9235     -13964.523    
   4800000   1.114988       304.97584      426.75        -13889.085    
   4900000   1.1050048      303.56218      551.1098      -13902.862    
   5000000   1.114563       299.96098      806.0216      -13893.688    
Loop time of 23009.5 on 12 procs for 5000000 steps with 1608 atoms

Performance: 18.775 ns/day, 1.278 hours/ns, 217.301 timesteps/s
93.9% CPU use with 12 MPI tasks x no OpenMP threads

MPI task timing breakdown:
Section |  min time  |  avg time  |  max time  |%varavg| %total
---------------------------------------------------------------
Pair    | 12796      | 13912      | 14668      | 585.3 | 60.46
Bond    | 3.5148     | 3.9437     | 4.353      |  14.0 |  0.02
Kspace  | 4488       | 5246.7     | 6360.8     | 954.2 | 22.80
Neigh   | 430.06     | 430.29     | 430.49     |   0.6 |  1.87
Comm    | 676.97     | 686.97     | 694.67     |  20.4 |  2.99
Output  | 0.22629    | 0.22678    | 0.23183    |   0.3 |  0.00
Modify  | 2459.3     | 2599.8     | 2642.1     |  86.4 | 11.30
Other   |            | 129.6      |            |       |  0.56

Nlocal:            134 ave         144 max         118 min
Histogram: 1 1 0 0 1 3 0 1 3 2
Nghost:         4305.5 ave        4380 max        4223 min
Histogram: 2 1 0 0 0 4 3 0 1 1
Neighs:        49957.1 ave       56300 max       41301 min
Histogram: 1 0 0 1 2 1 4 1 1 1

Total # of neighbors = 599485
Ave neighs/atom = 372.81405
Ave special neighs/atom = 1.8656716
Neighbor list builds = 203830
Dangerous builds = 0
Changing box ...
  orthogonal box = (0.37612325 0.37612325 0.37612325) to (26.006421 26.003386 26.003386)
  orthogonal box = (0.37612325 0.37612325 0.37612325) to (26.006421 26.006421 26.003386)
  orthogonal box = (0.37612325 0.37612325 0.37612325) to (26.006421 26.006421 26.006421)
PPPM initialization ...
  extracting TIP4P info from pair style
  using 12-bit tables for long-range coulomb (../kspace.cpp:342)
  G vector (1/distance) = 0.31040912
  grid = 24 24 24
  stencil order = 5
  estimated absolute RMS force accuracy = 0.003756879
  estimated relative force accuracy = 1.1313729e-05
  using double precision KISS FFT
  3d grid and FFT values/proc = 5415 1152
Generated 0 of 6 mixed pair_coeff terms from arithmetic mixing rule
Setting up Verlet run ...
  Unit style    : real
  Current step  : 5000000
  Time step     : 0.001
Per MPI rank memory allocation (min/avg/max) = 8.661 | 8.666 | 8.67 Mbytes
   Step        Density          Temp          Press          TotEng    
   5000000   1.114167       299.96098      74101.638     -13896.195    
   5010000   1.114167       301.05591      21.076718     -13911.258    
Loop time of 30.2086 on 12 procs for 10000 steps with 1608 atoms

Performance: 0.029 ns/day, 839.128 hours/ns, 331.031 timesteps/s
94.4% CPU use with 12 MPI tasks x no OpenMP threads

MPI task timing breakdown:
Section |  min time  |  avg time  |  max time  |%varavg| %total
---------------------------------------------------------------
Pair    | 15.517     | 18.886     | 20.764     |  30.8 | 62.52
Bond    | 0.0026257  | 0.0038318  | 0.0047477  |   1.1 |  0.01
Kspace  | 7.016      | 8.8378     | 12.119     |  43.8 | 29.26
Neigh   | 0          | 0          | 0          |   0.0 |  0.00
Comm    | 1.2219     | 1.2807     | 1.3657     |   3.6 |  4.24
Output  | 6.0739e-05 | 7.5079e-05 | 0.00021848 |   0.0 |  0.00
Modify  | 1.0211     | 1.0316     | 1.0426     |   0.6 |  3.41
Other   |            | 0.1687     |            |       |  0.56

Nlocal:            134 ave         144 max         118 min
Histogram: 1 1 0 0 1 3 0 1 3 2
Nghost:        4304.75 ave        4380 max        4221 min
Histogram: 2 0 1 0 1 3 3 0 1 1
Neighs:          49938 ave       56269 max       41294 min
Histogram: 1 0 0 1 2 1 4 1 1 1

Total # of neighbors = 599256
Ave neighs/atom = 372.67164
Ave special neighs/atom = 1.8656716
Neighbor list builds = 0
Dangerous builds = 0
PPPM initialization ...
  extracting TIP4P info from pair style
  using 12-bit tables for long-range coulomb (../kspace.cpp:342)
  G vector (1/distance) = 0.31040912
  grid = 24 24 24
  stencil order = 5
  estimated absolute RMS force accuracy = 0.003756879
  estimated relative force accuracy = 1.1313729e-05
  using double precision KISS FFT
  3d grid and FFT values/proc = 5415 1152
Generated 0 of 6 mixed pair_coeff terms from arithmetic mixing rule
Setting up Verlet run ...
  Unit style    : real
  Current step  : 5010000
  Time step     : 0.01
Per MPI rank memory allocation (min/avg/max) = 8.661 | 8.666 | 8.67 Mbytes
   Step        Density          Temp          Press          TotEng    
   5010000   1.114167       301.05591      21.088044     -13911.258    
   5020000   1.114167       308.05053      454.15241     -13862.864    
Loop time of 30.1547 on 12 procs for 10000 steps with 1608 atoms

Performance: 0.287 ns/day, 83.763 hours/ns, 331.623 timesteps/s
94.4% CPU use with 12 MPI tasks x no OpenMP threads

MPI task timing breakdown:
Section |  min time  |  avg time  |  max time  |%varavg| %total
---------------------------------------------------------------
Pair    | 15.442     | 18.89      | 20.501     |  32.2 | 62.65
Bond    | 0.0026186  | 0.0038331  | 0.0045876  |   1.1 |  0.01
Kspace  | 7.169      | 8.7255     | 12.073     |  45.8 | 28.94
Neigh   | 0.0082259  | 0.0082371  | 0.0082495  |   0.0 |  0.03
Comm    | 1.2335     | 1.2966     | 1.4055     |   4.4 |  4.30
Output  | 6.5567e-05 | 8.2411e-05 | 0.00025143 |   0.0 |  0.00
Modify  | 1.0422     | 1.0614     | 1.0796     |   1.0 |  3.52
Other   |            | 0.1686     |            |       |  0.56

Nlocal:            134 ave         146 max         116 min
Histogram: 1 1 0 1 2 0 2 1 0 4
Nghost:        4298.42 ave        4372 max        4210 min
Histogram: 1 1 0 1 1 2 3 0 2 1
Neighs:        49945.2 ave       56022 max       41287 min
Histogram: 1 0 1 0 2 2 1 1 2 2

Total # of neighbors = 599342
Ave neighs/atom = 372.72512
Ave special neighs/atom = 1.8656716
Neighbor list builds = 4
Dangerous builds = 0
PPPM initialization ...
  extracting TIP4P info from pair style
  using 12-bit tables for long-range coulomb (../kspace.cpp:342)
  G vector (1/distance) = 0.31040912
  grid = 24 24 24
  stencil order = 5
  estimated absolute RMS force accuracy = 0.003756879
  estimated relative force accuracy = 1.1313729e-05
  using double precision KISS FFT
  3d grid and FFT values/proc = 5415 1152
Generated 0 of 6 mixed pair_coeff terms from arithmetic mixing rule
Setting up Verlet run ...
  Unit style    : real
  Current step  : 5020000
  Time step     : 0.1
Per MPI rank memory allocation (min/avg/max) = 8.661 | 8.666 | 8.67 Mbytes
   Step        Density          Temp          Press          TotEng    
   5020000   1.114167       308.05053      453.81773     -13862.864    
   5030000   1.114167       309.75145     -78.13262      -13862.717    
Loop time of 30.4809 on 12 procs for 10000 steps with 1608 atoms

Performance: 2.835 ns/day, 8.467 hours/ns, 328.075 timesteps/s
94.2% CPU use with 12 MPI tasks x no OpenMP threads

MPI task timing breakdown:
Section |  min time  |  avg time  |  max time  |%varavg| %total
---------------------------------------------------------------
Pair    | 17.157     | 19.016     | 20.485     |  21.9 | 62.39
Bond    | 0.0026108  | 0.0038238  | 0.0048909  |   1.2 |  0.01
Kspace  | 7.405      | 8.8394     | 10.664     |  31.3 | 29.00
Neigh   | 0.083477   | 0.083533   | 0.083576   |   0.0 |  0.27
Comm    | 1.2429     | 1.3089     | 1.3757     |   3.0 |  4.29
Output  | 6.0735e-05 | 7.6706e-05 | 0.00023419 |   0.0 |  0.00
Modify  | 1.044      | 1.0609     | 1.0777     |   0.9 |  3.48
Other   |            | 0.1687     |            |       |  0.55

Nlocal:            134 ave         141 max         122 min
Histogram: 1 1 0 0 2 1 1 2 1 3
Nghost:        4291.58 ave        4352 max        4227 min
Histogram: 1 1 3 1 0 0 2 1 2 1
Neighs:        49910.8 ave       54732 max       46050 min
Histogram: 2 1 0 2 2 0 4 0 0 1

Total # of neighbors = 598930
Ave neighs/atom = 372.46891
Ave special neighs/atom = 1.8656716
Neighbor list builds = 40
Dangerous builds = 0
PPPM initialization ...
  extracting TIP4P info from pair style
  using 12-bit tables for long-range coulomb (../kspace.cpp:342)
  G vector (1/distance) = 0.31040912
  grid = 24 24 24
  stencil order = 5
  estimated absolute RMS force accuracy = 0.003756879
  estimated relative force accuracy = 1.1313729e-05
  using double precision KISS FFT
  3d grid and FFT values/proc = 5415 1152
Generated 0 of 6 mixed pair_coeff terms from arithmetic mixing rule
Setting up Verlet run ...
  Unit style    : real
  Current step  : 5030000
  Time step     : 0.2
Per MPI rank memory allocation (min/avg/max) = 8.661 | 8.666 | 8.67 Mbytes
   Step        Density          Temp          Press          TotEng    
   5030000   1.114167       309.75145     -79.215283     -13862.717    
   5040000   1.114167       295.83958      765.04825     -13900.452    
Loop time of 30.6308 on 12 procs for 10000 steps with 1608 atoms

Performance: 5.641 ns/day, 4.254 hours/ns, 326.469 timesteps/s
94.4% CPU use with 12 MPI tasks x no OpenMP threads

MPI task timing breakdown:
Section |  min time  |  avg time  |  max time  |%varavg| %total
---------------------------------------------------------------
Pair    | 18.153     | 19.131     | 20.426     |  18.4 | 62.46
Bond    | 0.0025006  | 0.0038077  | 0.0049384  |   1.3 |  0.01
Kspace  | 7.5353     | 8.7893     | 9.7648     |  26.8 | 28.69
Neigh   | 0.16993    | 0.17002    | 0.17012    |   0.0 |  0.56
Comm    | 1.2803     | 1.3176     | 1.3687     |   2.0 |  4.30
Output  | 6.0792e-05 | 7.709e-05  | 0.00024081 |   0.0 |  0.00
Modify  | 1.0412     | 1.0486     | 1.0607     |   0.5 |  3.42
Other   |            | 0.1705     |            |       |  0.56

Nlocal:            134 ave         143 max         129 min
Histogram: 2 3 1 0 2 2 1 0 0 1
Nghost:        4299.25 ave        4327 max        4245 min
Histogram: 1 0 0 1 1 2 0 3 1 3
Neighs:        49922.5 ave       53625 max       47113 min
Histogram: 2 2 0 1 2 2 1 1 0 1

Total # of neighbors = 599070
Ave neighs/atom = 372.55597
Ave special neighs/atom = 1.8656716
Neighbor list builds = 83
Dangerous builds = 0
PPPM initialization ...
  extracting TIP4P info from pair style
  using 12-bit tables for long-range coulomb (../kspace.cpp:342)
  G vector (1/distance) = 0.31040912
  grid = 24 24 24
  stencil order = 5
  estimated absolute RMS force accuracy = 0.003756879
  estimated relative force accuracy = 1.1313729e-05
  using double precision KISS FFT
  3d grid and FFT values/proc = 5415 1152
Generated 0 of 6 mixed pair_coeff terms from arithmetic mixing rule
Setting up Verlet run ...
  Unit style    : real
  Current step  : 5040000
  Time step     : 0.5
Per MPI rank memory allocation (min/avg/max) = 8.661 | 8.666 | 8.67 Mbytes
   Step        Density          Temp          Press          TotEng    
   5040000   1.114167       295.83958      761.62697     -13900.452    
   5050000   1.114167       300.88279     -1436.7808     -13921.537    
Loop time of 31.0225 on 12 procs for 10000 steps with 1608 atoms

Performance: 13.925 ns/day, 1.723 hours/ns, 322.347 timesteps/s
94.7% CPU use with 12 MPI tasks x no OpenMP threads

MPI task timing breakdown:
Section |  min time  |  avg time  |  max time  |%varavg| %total
---------------------------------------------------------------
Pair    | 18.253     | 19.266     | 20.597     |  15.0 | 62.10
Bond    | 0.0025244  | 0.0037274  | 0.0046825  |   1.3 |  0.01
Kspace  | 7.3779     | 8.7155     | 9.7276     |  22.2 | 28.09
Neigh   | 0.42652    | 0.42709    | 0.42748    |   0.0 |  1.38
Comm    | 1.3045     | 1.3559     | 1.3834     |   1.8 |  4.37
Output  | 6.3014e-05 | 7.9511e-05 | 0.00024535 |   0.0 |  0.00
Modify  | 1.0658     | 1.0839     | 1.1075     |   1.1 |  3.49
Other   |            | 0.1705     |            |       |  0.55

Nlocal:            134 ave         142 max         124 min
Histogram: 1 0 2 2 1 0 1 1 2 2
Nghost:        4306.75 ave        4341 max        4283 min
Histogram: 2 2 2 1 1 0 1 1 1 1
Neighs:        49919.8 ave       54048 max       46006 min
Histogram: 2 0 1 0 4 1 1 1 1 1

Total # of neighbors = 599037
Ave neighs/atom = 372.53545
Ave special neighs/atom = 1.8656716
Neighbor list builds = 204
Dangerous builds = 0
PPPM initialization ...
  extracting TIP4P info from pair style
  using 12-bit tables for long-range coulomb (../kspace.cpp:342)
  G vector (1/distance) = 0.31040912
  grid = 24 24 24
  stencil order = 5
  estimated absolute RMS force accuracy = 0.003756879
  estimated relative force accuracy = 1.1313729e-05
  using double precision KISS FFT
  3d grid and FFT values/proc = 5415 1152
Generated 0 of 6 mixed pair_coeff terms from arithmetic mixing rule
Setting up Verlet run ...
  Unit style    : real
  Current step  : 5050000
  Time step     : 1
Per MPI rank memory allocation (min/avg/max) = 8.661 | 8.666 | 8.67 Mbytes
   Step        Density          Temp          Press          TotEng    
   5050000   1.114167       300.88279     -1439.0257     -13921.537    
   5100000   1.114167       295.1161      -624.0499      -13923.401    
   5200000   1.114167       292.78009      55.015149     -13921.268    
   5300000   1.114167       305.50254      399.75342     -13910.413    
   5400000   1.114167       307.14828     -839.15381     -13824.856    
   5500000   1.114167       292.49173      1527.1911     -13938.191    
   5600000   1.114167       293.81098      542.46866     -13911.471    
   5700000   1.114167       289.59644      129.62869     -14045.598    
   5800000   1.114167       298.6418       284.26541     -13903.488    
   5900000   1.114167       305.1167       720.83326     -13878.262    
   6000000   1.114167       302.51339      828.07255     -13847.707    
   6100000   1.114167       291.02585     -149.73424     -13912.475    
   6200000   1.114167       298.7929      -125.87374     -13962.786    
   6300000   1.114167       293.31521     -31.009589     -13990.397    
   6400000   1.114167       303.13358     -915.31621     -13899.835    
   6500000   1.114167       299.98062      155.37744     -13870.853    
   6600000   1.114167       304.84762      986.91635     -13904.679    
   6700000   1.114167       319.24057      1131.161      -13835.297    
   6800000   1.114167       297.02244     -137.95471     -13901        
   6900000   1.114167       290.65369      12.221481     -13923.504    
   7000000   1.114167       312.02951     -807.0915      -13827.131    
   7100000   1.114167       293.90523     -886.56939     -13953.73     
   7200000   1.114167       299.43073     -180.70405     -13930.394    
   7300000   1.114167       289.63806     -952.19177     -14008.32     
   7400000   1.114167       311.68079      1410.6914     -13887.427    
   7500000   1.114167       303.41608      1730.6603     -13905.507    
   7550000   1.114167       291.69609      539.21899     -13904.992    
Loop time of 8017.43 on 12 procs for 2500000 steps with 1608 atoms

Performance: 26.941 ns/day, 0.891 hours/ns, 311.821 timesteps/s
94.0% CPU use with 12 MPI tasks x no OpenMP threads

MPI task timing breakdown:
Section |  min time  |  avg time  |  max time  |%varavg| %total
---------------------------------------------------------------
Pair    | 4508.7     | 4860.6     | 5096.2     | 300.7 | 60.63
Bond    | 0.64089    | 0.96068    | 1.2395     |  19.2 |  0.01
Kspace  | 2045       | 2283.6     | 2634.3     | 439.3 | 28.48
Neigh   | 212.35     | 212.51     | 212.63     |   0.6 |  2.65
Comm    | 340.52     | 344.38     | 348.63     |  12.0 |  4.30
Output  | 0.11194    | 0.11221    | 0.11503    |   0.3 |  0.00
Modify  | 270.63     | 272.35     | 274.42     |   7.1 |  3.40
Other   |            | 42.94      |            |       |  0.54

Nlocal:            134 ave         142 max         128 min
Histogram: 3 2 1 1 0 0 1 1 1 2
Nghost:        4302.25 ave        4376 max        4237 min
Histogram: 1 2 0 1 2 3 0 2 0 1
Neighs:        49945.8 ave       54244 max       46444 min
Histogram: 2 0 3 0 3 1 0 1 0 2

Total # of neighbors = 599350
Ave neighs/atom = 372.7301
Ave special neighs/atom = 1.8656716
Neighbor list builds = 100806
Dangerous builds = 0

CITE-CITE-CITE-CITE-CITE-CITE-CITE-CITE-CITE-CITE-CITE-CITE-CITE

Your simulation uses code contributions which should be cited:
- fix ave/ordern command:
The log file lists these citations in BibTeX format.

CITE-CITE-CITE-CITE-CITE-CITE-CITE-CITE-CITE-CITE-CITE-CITE-CITE

PPPM initialization ...
  extracting TIP4P info from pair style
  using 12-bit tables for long-range coulomb (../kspace.cpp:342)
  G vector (1/distance) = 0.31040912
  grid = 24 24 24
  stencil order = 5
  estimated absolute RMS force accuracy = 0.003756879
  estimated relative force accuracy = 1.1313729e-05
  using double precision KISS FFT
  3d grid and FFT values/proc = 5415 1152
Generated 0 of 6 mixed pair_coeff terms from arithmetic mixing rule
Setting up Verlet run ...
  Unit style    : real
  Current step  : 0
  Time step     : 1
Per MPI rank memory allocation (min/avg/max) = 14.4 | 14.41 | 14.41 Mbytes
   Step        Density          Temp          Press          TotEng    
         0   1.114167       291.69609      539.07015     -13904.992    
    100000   1.114167       300.02156      897.48634     -13905.921    
    200000   1.114167       301.34071      156.01203     -13937.31     
    250000   1.114167       295.79677     -357.67689     -14023.746    
Loop time of 1272.42 on 12 procs for 250000 steps with 1608 atoms

Performance: 16.976 ns/day, 1.414 hours/ns, 196.476 timesteps/s
93.9% CPU use with 12 MPI tasks x no OpenMP threads

MPI task timing breakdown:
Section |  min time  |  avg time  |  max time  |%varavg| %total
---------------------------------------------------------------
Pair    | 728.21     | 790.72     | 847.93     | 138.0 | 62.14
Bond    | 3.3804     | 3.4842     | 3.5452     |   2.3 |  0.27
Kspace  | 285.73     | 343.31     | 405.83     | 210.0 | 26.98
Neigh   | 21.239     | 21.254     | 21.263     |   0.2 |  1.67
Comm    | 35.496     | 35.742     | 36.069     |   2.8 |  2.81
Output  | 0.072887   | 0.073466   | 0.07407    |   0.1 |  0.01
Modify  | 72.884     | 73.002     | 73.17      |   0.9 |  5.74
Other   |            | 4.841      |            |       |  0.38

Nlocal:            134 ave         142 max         123 min
Histogram: 1 0 1 1 2 2 0 1 3 1
Nghost:         4306.5 ave        4340 max        4262 min
Histogram: 1 2 0 1 1 0 0 5 0 2
Neighs:        49927.4 ave       56452 max       45205 min
Histogram: 2 1 0 2 3 1 2 0 0 1

Total # of neighbors = 599129
Ave neighs/atom = 372.59266
Ave special neighs/atom = 1.8656716
Neighbor list builds = 10086
Dangerous builds = 0
PPPM initialization ...
  extracting TIP4P info from pair style
  using 12-bit tables for long-range coulomb (../kspace.cpp:342)
  G vector (1/distance) = 0.31040912
  grid = 24 24 24
  stencil order = 5
  estimated absolute RMS force accuracy = 0.003756879
  estimated relative force accuracy = 1.1313729e-05
  using double precision KISS FFT
  3d grid and FFT values/proc = 5415 1152
Generated 0 of 6 mixed pair_coeff terms from arithmetic mixing rule
Setting up Verlet run ...
  Unit style    : real
  Current step  : 250000
  Time step     : 1
Per MPI rank memory allocation (min/avg/max) = 14.4 | 14.41 | 14.41 Mbytes
   Step        Density          Temp          Press          TotEng    
    250000   1.114167       295.79677     -357.38322     -14023.746    
    300000   1.114167       294.38035      661.43708     -13915.7      
    400000   1.114167       287.66292      42.015086     -13892.466    
    500000   1.114167       294.24965      656.09649     -13920.062    
Loop time of 1274.42 on 12 procs for 250000 steps with 1608 atoms

Performance: 16.949 ns/day, 1.416 hours/ns, 196.167 timesteps/s
93.9% CPU use with 12 MPI tasks x no OpenMP threads

MPI task timing breakdown:
Section |  min time  |  avg time  |  max time  |%varavg| %total
---------------------------------------------------------------
Pair    | 735.09     | 791.78     | 845.7      | 128.8 | 62.13
Bond    | 3.386      | 3.4823     | 3.5428     |   2.0 |  0.27
Kspace  | 289.91     | 344.2      | 400.93     | 195.8 | 27.01
Neigh   | 21.314     | 21.327     | 21.34      |   0.2 |  1.67
Comm    | 35.485     | 35.715     | 35.976     |   2.6 |  2.80
Output  | 0.10667    | 0.107      | 0.1074     |   0.1 |  0.01
Modify  | 72.785     | 72.975     | 73.178     |   1.2 |  5.73
Other   |            | 4.843      |            |       |  0.38

Nlocal:            134 ave         143 max         125 min
Histogram: 1 2 2 0 0 1 3 0 1 2
Nghost:         4295.5 ave        4323 max        4274 min
Histogram: 3 1 0 0 2 3 1 0 1 1
Neighs:        49937.5 ave       56160 max       44723 min
Histogram: 1 3 2 0 1 1 0 1 1 2

Total # of neighbors = 599250
Ave neighs/atom = 372.66791
Ave special neighs/atom = 1.8656716
Neighbor list builds = 10094
Dangerous builds = 0
