created by fftool

1608 atoms
1000 bonds
500 angles
4 atom types
1 bond types
1 angle types
0.000000 26.379509 xlo xhi
0.000000 26.379509 ylo yhi
0.000000 26.379509 zlo zhi
Atoms

      1       1    1  -1.112800  2.196176e+01  1.782470e+01  2.261361e+01  # Ow water
      2       1    2   0.556400  2.183770e+01  1.740495e+01  2.176234e+01  # Hw water
      3       1    2   0.556400  2.264044e+01  1.848209e+01  2.246040e+01  # Hw water
      4       2    1  -1.112800  7.056587e+00  1.692836e+01  1.931966e+01  # Ow water
      5       2    2   0.556400  7.207836e+00  1.631944e+01  2.004255e+01  # Hw water
      6       2    2   0.556400  7.473067e+00  1.774301e+01  1.960095e+01  # Hw water
      7       3    1  -1.112800  6.683013e+00  2.244776e+01  2.037657e+01  # Ow water
      8       3    2   0.556400  6.213847e+00  2.272433e+01  2.116373e+01  # Hw water
      9       3    2   0.556400  6.131586e+00  2.274345e+01  1.965219e+01  # Hw water
     10       4    1  -1.112800  1.417993e+01  1.770066e+01  2.183194e+01  # Ow water
     11       4    2   0.556400  1.343523e+01  1.791353e+01  2.239438e+01  # Hw water
     12       4    2   0.556400  1.488475e+01  1.826958e+01  2.214141e+01  # Hw water
     13       5    1  -1.112800  1.816650e+01  2.432412e+01  3.994261e+00  # Ow water
     14       5    2   0.556400  1.893659e+01  2.487978e+01  3.874121e+00  # Hw water
     15       5    2   0.556400  1.742824e+01  2.487989e+01  3.744632e+00  # Hw water
     16       6    1  -1.112800  7.262586e+00  2.487956e+01  2.039725e+01  # Ow water
     17       6    2   0.556400  8.025489e+00  2.464919e+01  2.092747e+01  # Hw water
     18       6    2   0.556400  7.583620e+00  2.486466e+01  1.949561e+01  # Hw water
     19       7    1  -1.112800  1.863804e+01  8.721570e+00  1.532050e+01  # Ow water
     20       7    2   0.556400  1.839094e+01  9.630312e+00  1.514914e+01  # Hw water
     21       7    2   0.556400  1.888360e+01  8.373888e+00  1.446315e+01  # Hw water
     22       8    1  -1.112800  9.842812e+00  7.606213e+00  2.053070e+01  # Ow water
     23       8    2   0.556400  1.012083e+01  6.823262e+00  2.100601e+01  # Hw water
     24       8    2   0.556400  8.958405e+00  7.401350e+00  2.022724e+01  # Hw water
     25       9    1  -1.112800  2.233988e+01  2.047417e+01  1.678591e+01  # Ow water
     26       9    2   0.556400  2.155427e+01  2.003871e+01  1.711669e+01  # Hw water
     27       9    2   0.556400  2.255973e+01  1.999719e+01  1.598567e+01  # Hw water
     28      10    1  -1.112800  2.034771e+00  4.696156e+00  6.325948e+00  # Ow water
     29      10    2   0.556400  1.499735e+00  5.387944e+00  6.715040e+00  # Hw water
     30      10    2   0.556400  1.504038e+00  3.904391e+00  6.413470e+00  # Hw water
     31      11    1  -1.112800  1.986778e+01  1.220219e+01  1.712183e+01  # Ow water
     32      11    2   0.556400  1.993815e+01  1.139157e+01  1.762599e+01  # Hw water
     33      11    2   0.556400  1.986734e+01  1.191721e+01  1.620804e+01  # Hw water
     34      12    1  -1.112800  8.097255e+00  1.961701e+01  2.436532e+01  # Ow water
     35      12    2   0.556400  7.854571e+00  1.872463e+01  2.461229e+01  # Hw water
     36      12    2   0.556400  8.883077e+00  1.980297e+01  2.487926e+01  # Hw water
     37      13    1  -1.112800  2.117832e+01  4.943333e+00  3.717540e+00  # Ow water
     38      13    2   0.556400  2.159109e+01  4.473786e+00  4.442366e+00  # Hw water
     39      13    2   0.556400  2.055869e+01  5.538733e+00  4.139183e+00  # Hw water
     40      14    1  -1.112800  1.337704e+01  1.428336e+01  2.226863e+01  # Ow water
     41      14    2   0.556400  1.407032e+01  1.423628e+01  2.161031e+01  # Hw water
     42      14    2   0.556400  1.343606e+01  1.517331e+01  2.261609e+01  # Hw water
     43      15    1  -1.112800  1.138046e+01  4.019465e+00  1.434033e+01  # Ow water
     44      15    2   0.556400  1.049269e+01  3.855939e+00  1.465870e+01  # Hw water
     45      15    2   0.556400  1.129129e+01  4.054064e+00  1.338792e+01  # Hw water
     46      16    1  -1.112800  2.122825e+01  1.340070e+01  9.634552e+00  # Ow water
     47      16    2   0.556400  2.169288e+01  1.373414e+01  1.040213e+01  # Hw water
     48      16    2   0.556400  2.066186e+01  1.412342e+01  9.364169e+00  # Hw water
     49      17    1  -1.112800  4.830595e+00  1.919793e+01  1.823228e+01  # Ow water
     50      17    2   0.556400  5.089717e+00  1.902862e+01  1.913805e+01  # Hw water
     51      17    2   0.556400  3.901174e+00  1.897100e+01  1.820213e+01  # Hw water
     52      18    1  -1.112800  1.732556e+01  1.234897e+01  2.416619e+01  # Ow water
     53      18    2   0.556400  1.805538e+01  1.266428e+01  2.363312e+01  # Hw water
     54      18    2   0.556400  1.725720e+01  1.298399e+01  2.487915e+01  # Hw water
     55      19    1  -1.112800  1.502728e+00  1.084076e+01  4.818153e+00  # Ow water
     56      19    2   0.556400  2.123263e+00  1.013941e+01  4.619973e+00  # Hw water
     57      19    2   0.556400  1.499952e+00  1.089582e+01  5.773763e+00  # Hw water
     58      20    1  -1.112800  2.445051e+01  3.001372e+00  4.445538e+00  # Ow water
     59      20    2   0.556400  2.488274e+01  3.300021e+00  3.645403e+00  # Hw water
     60      20    2   0.556400  2.397519e+01  3.769370e+00  4.762525e+00  # Hw water
     61      21    1  -1.112800  7.039613e+00  5.330847e+00  1.430491e+01  # Ow water
     62      21    2   0.556400  6.623337e+00  4.525917e+00  1.461318e+01  # Hw water
     63      21    2   0.556400  7.118832e+00  5.875258e+00  1.508822e+01  # Hw water
     64      22    1  -1.112800  4.075525e+00  1.158866e+01  1.502370e+01  # Ow water
     65      22    2   0.556400  3.935626e+00  1.227733e+01  1.437378e+01  # Hw water
     66      22    2   0.556400  4.097870e+00  1.077870e+01  1.451410e+01  # Hw water
     67      23    1  -1.112800  2.009838e+01  4.132315e+00  1.034329e+01  # Ow water
     68      23    2   0.556400  1.916528e+01  4.343199e+00  1.031033e+01  # Hw water
     69      23    2   0.556400  2.044825e+01  4.698583e+00  1.103115e+01  # Hw water
     70      24    1  -1.112800  2.349049e+01  7.060331e+00  1.712986e+01  # Ow water
     71      24    2   0.556400  2.296701e+01  7.380251e+00  1.639512e+01  # Hw water
     72      24    2   0.556400  2.293450e+01  7.195020e+00  1.789730e+01  # Hw water
     73      25    1  -1.112800  1.941839e+00  2.068362e+01  1.500696e+00  # Ow water
     74      25    2   0.556400  1.502329e+00  1.983338e+01  1.512495e+00  # Hw water
     75      25    2   0.556400  1.499921e+00  2.119168e+01  2.181003e+00  # Hw water
     76      26    1  -1.112800  2.408207e+01  1.758227e+01  2.081199e+00  # Ow water
     77      26    2   0.556400  2.487868e+01  1.748629e+01  1.559249e+00  # Hw water
     78      26    2   0.556400  2.346722e+01  1.803056e+01  1.500492e+00  # Hw water
     79      27    1  -1.112800  1.013199e+01  8.049461e+00  2.487912e+01  # Ow water
     80      27    2   0.556400  9.413373e+00  7.417751e+00  2.485145e+01  # Hw water
     81      27    2   0.556400  1.092428e+01  7.512835e+00  2.485594e+01  # Hw water
     82      28    1  -1.112800  2.488156e+01  9.930991e+00  2.304584e+01  # Ow water
     83      28    2   0.556400  2.485562e+01  1.088533e+01  2.311506e+01  # Hw water
     84      28    2   0.556400  2.407214e+01  9.701383e+00  2.258939e+01  # Hw water
     85      29    1  -1.112800  2.383586e+01  1.308976e+01  2.199977e+01  # Ow water
     86      29    2   0.556400  2.312655e+01  1.369284e+01  2.222202e+01  # Hw water
     87      29    2   0.556400  2.462367e+01  1.350698e+01  2.234836e+01  # Hw water
     88      30    1  -1.112800  1.518639e+01  2.443755e+01  2.305428e+00  # Ow water
     89      30    2   0.556400  1.545541e+01  2.487969e+01  1.500215e+00  # Hw water
     90      30    2   0.556400  1.437774e+01  2.487995e+01  2.563480e+00  # Hw water
     91      31    1  -1.112800  9.664796e+00  1.507263e+00  2.248136e+01  # Ow water
     92      31    2   0.556400  9.056392e+00  1.500642e+00  2.174242e+01  # Hw water
     93      31    2   0.556400  1.053266e+01  1.514059e+00  2.207762e+01  # Hw water
     94      32    1  -1.112800  4.139464e+00  1.090997e+01  2.488003e+01  # Ow water
     95      32    2   0.556400  5.026260e+00  1.127027e+01  2.487992e+01  # Hw water
     96      32    2   0.556400  3.977695e+00  1.067027e+01  2.396756e+01  # Hw water
     97      33    1  -1.112800  4.884676e+00  4.292427e+00  6.539483e+00  # Ow water
     98      33    2   0.556400  4.631132e+00  4.630685e+00  5.680690e+00  # Hw water
     99      33    2   0.556400  5.649851e+00  3.744373e+00  6.365201e+00  # Hw water
    100      34    1  -1.112800  2.429861e+01  1.803422e+01  5.447335e+00  # Ow water
    101      34    2   0.556400  2.487966e+01  1.820076e+01  4.705124e+00  # Hw water
    102      34    2   0.556400  2.487983e+01  1.772638e+01  6.142780e+00  # Hw water
    103      35    1  -1.112800  2.253423e+01  1.520409e+01  5.977377e+00  # Ow water
    104      35    2   0.556400  2.227152e+01  1.547630e+01  5.098108e+00  # Hw water
    105      35    2   0.556400  2.281049e+01  1.601375e+01  6.406754e+00  # Hw water
    106      36    1  -1.112800  8.391067e+00  3.591344e+00  6.210369e+00  # Ow water
    107      36    2   0.556400  8.953038e+00  4.260759e+00  5.820110e+00  # Hw water
    108      36    2   0.556400  8.960055e+00  2.827944e+00  6.308870e+00  # Hw water
    109      37    1  -1.112800  1.051117e+01  2.487132e+01  9.747111e+00  # Ow water
    110      37    2   0.556400  9.715698e+00  2.486755e+01  9.214719e+00  # Hw water
    111      37    2   0.556400  1.122600e+01  2.487236e+01  9.110524e+00  # Hw water
    112      38    1  -1.112800  7.357992e+00  2.487910e+01  1.127803e+01  # Ow water
    113      38    2   0.556400  7.318752e+00  2.408410e+01  1.180969e+01  # Hw water
    114      38    2   0.556400  7.246520e+00  2.457189e+01  1.037835e+01  # Hw water
    115      39    1  -1.112800  1.951171e+01  1.831892e+01  1.243076e+01  # Ow water
    116      39    2   0.556400  1.869463e+01  1.790076e+01  1.270233e+01  # Hw water
    117      39    2   0.556400  1.940633e+01  1.846352e+01  1.149044e+01  # Hw water
    118      40    1  -1.112800  3.914569e+00  2.377259e+00  1.427411e+01  # Ow water
    119      40    2   0.556400  4.263601e+00  3.146011e+00  1.472513e+01  # Hw water
    120      40    2   0.556400  3.635906e+00  1.791828e+00  1.497827e+01  # Hw water
    121      41    1  -1.112800  7.248978e+00  1.059478e+01  1.499425e+00  # Ow water
    122      41    2   0.556400  7.514223e+00  1.069689e+01  2.413453e+00  # Hw water
    123      41    2   0.556400  6.678228e+00  9.826356e+00  1.499576e+00  # Hw water
    124      42    1  -1.112800  1.258328e+01  8.916353e+00  4.361511e+00  # Ow water
    125      42    2   0.556400  1.255769e+01  7.959602e+00  4.347254e+00  # Hw water
    126      42    2   0.556400  1.346689e+01  9.137211e+00  4.067095e+00  # Hw water
    127      43    1  -1.112800  1.528281e+01  2.285385e+01  1.502310e+01  # Ow water
    128      43    2   0.556400  1.591297e+01  2.356434e+01  1.490342e+01  # Hw water
    129      43    2   0.556400  1.483522e+01  2.278546e+01  1.417977e+01  # Hw water
    130      44    1  -1.112800  7.223638e+00  2.487935e+01  7.684917e+00  # Ow water
    131      44    2   0.556400  7.981726e+00  2.486482e+01  7.100691e+00  # Hw water
    132      44    2   0.556400  6.483536e+00  2.464849e+01  7.123507e+00  # Hw water
    133      45    1  -1.112800  2.107535e+01  9.080215e+00  1.954799e+01  # Ow water
    134      45    2   0.556400  2.038835e+01  9.713731e+00  1.975513e+01  # Hw water
    135      45    2   0.556400  2.149014e+01  9.425851e+00  1.875760e+01  # Hw water
    136      46    1  -1.112800  1.529948e+01  1.092461e+01  1.499951e+00  # Ow water
    137      46    2   0.556400  1.530601e+01  1.057976e+01  2.392847e+00  # Hw water
    138      46    2   0.556400  1.459820e+01  1.157609e+01  1.499422e+00  # Hw water
    139      47    1  -1.112800  2.170630e+01  2.273325e+01  5.693206e+00  # Ow water
    140      47    2   0.556400  2.255169e+01  2.256946e+01  6.111208e+00  # Hw water
    141      47    2   0.556400  2.107040e+01  2.229317e+01  6.257286e+00  # Hw water
    142      48    1  -1.112800  1.158661e+01  5.681629e+00  6.413916e+00  # Ow water
    143      48    2   0.556400  1.219858e+01  6.314930e+00  6.788951e+00  # Hw water
    144      48    2   0.556400  1.107889e+01  5.366670e+00  7.161741e+00  # Hw water
    145      49    1  -1.112800  1.489623e+01  6.689059e+00  6.412478e+00  # Ow water
    146      49    2   0.556400  1.484145e+01  6.962475e+00  5.496797e+00  # Hw water
    147      49    2   0.556400  1.550380e+01  7.311063e+00  6.812728e+00  # Hw water
    148      50    1  -1.112800  1.107511e+01  1.501224e+00  1.319727e+01  # Ow water
    149      50    2   0.556400  1.156540e+01  1.514985e+00  1.401926e+01  # Hw water
    150      50    2   0.556400  1.015642e+01  1.517705e+00  1.346551e+01  # Hw water
    151      51    1  -1.112800  1.706864e+01  1.416566e+01  1.705229e+01  # Ow water
    152      51    2   0.556400  1.679351e+01  1.393162e+01  1.793872e+01  # Hw water
    153      51    2   0.556400  1.756676e+01  1.497569e+01  1.716161e+01  # Hw water
    154      52    1  -1.112800  7.957157e+00  1.488090e+01  1.799132e+00  # Ow water
    155      52    2   0.556400  7.144108e+00  1.538174e+01  1.865060e+00  # Hw water
    156      52    2   0.556400  7.681505e+00  1.401392e+01  1.501497e+00  # Hw water
    157      53    1  -1.112800  2.431834e+01  5.738060e+00  1.490097e+01  # Ow water
    158      53    2   0.556400  2.487994e+01  5.693703e+00  1.412711e+01  # Hw water
    159      53    2   0.556400  2.488007e+01  5.453306e+00  1.562180e+01  # Hw water
    160      54    1  -1.112800  2.400453e+01  1.575297e+00  1.149562e+01  # Ow water
    161      54    2   0.556400  2.336848e+01  1.498827e+00  1.220683e+01  # Hw water
    162      54    2   0.556400  2.485611e+01  1.499262e+00  1.192603e+01  # Hw water
    163      55    1  -1.112800  7.789876e+00  1.321190e+01  2.004809e+01  # Ow water
    164      55    2   0.556400  7.461012e+00  1.246815e+01  1.954320e+01  # Hw water
    165      55    2   0.556400  8.134173e+00  1.381544e+01  1.938974e+01  # Hw water
    166      56    1  -1.112800  9.362276e+00  9.638181e+00  4.025838e+00  # Ow water
    167      56    2   0.556400  1.016220e+01  1.000434e+01  3.648649e+00  # Hw water
    168      56    2   0.556400  9.000160e+00  1.034809e+01  4.556057e+00  # Hw water
    169      57    1  -1.112800  1.596862e+01  1.846903e+00  1.974291e+01  # Ow water
    170      57    2   0.556400  1.685008e+01  1.499646e+00  1.987957e+01  # Hw water
    171      57    2   0.556400  1.570388e+01  1.500970e+00  1.889057e+01  # Hw water
    172      58    1  -1.112800  1.231611e+01  9.488594e+00  1.400897e+01  # Ow water
    173      58    2   0.556400  1.319124e+01  9.244244e+00  1.370783e+01  # Hw water
    174      58    2   0.556400  1.181703e+01  9.632208e+00  1.320491e+01  # Hw water
    175      59    1  -1.112800  2.477118e+01  6.052158e+00  3.248184e+00  # Ow water
    176      59    2   0.556400  2.382723e+01  6.102871e+00  3.398549e+00  # Hw water
    177      59    2   0.556400  2.487975e+01  6.280477e+00  2.324976e+00  # Hw water
    178      60    1  -1.112800  1.640085e+01  3.714048e+00  1.042683e+01  # Ow water
    179      60    2   0.556400  1.558825e+01  4.212394e+00  1.051377e+01  # Hw water
    180      60    2   0.556400  1.670813e+01  3.597315e+00  1.132582e+01  # Hw water
    181      61    1  -1.112800  2.096349e+01  2.090590e+01  2.277188e+01  # Ow water
    182      61    2   0.556400  2.107129e+01  2.173420e+01  2.230442e+01  # Hw water
    183      61    2   0.556400  2.014012e+01  2.054823e+01  2.243966e+01  # Hw water
    184      62    1  -1.112800  5.666389e+00  2.231862e+01  1.344562e+01  # Ow water
    185      62    2   0.556400  5.828285e+00  2.143183e+01  1.376752e+01  # Hw water
    186      62    2   0.556400  5.209240e+00  2.275513e+01  1.416444e+01  # Hw water
    187      63    1  -1.112800  2.167931e+01  6.179216e+00  1.420657e+01  # Ow water
    188      63    2   0.556400  2.087556e+01  6.480812e+00  1.462995e+01  # Hw water
    189      63    2   0.556400  2.143623e+01  6.058269e+00  1.328868e+01  # Hw water
    190      64    1  -1.112800  2.487818e+01  1.659117e+01  2.214015e+01  # Ow water
    191      64    2   0.556400  2.488084e+01  1.619629e+01  2.126820e+01  # Hw water
    192      64    2   0.556400  2.411921e+01  1.620419e+01  2.257654e+01  # Hw water
    193      65    1  -1.112800  2.006457e+00  1.644597e+01  7.044949e+00  # Ow water
    194      65    2   0.556400  1.499515e+00  1.601450e+01  6.357143e+00  # Hw water
    195      65    2   0.556400  1.499654e+00  1.722857e+01  7.261539e+00  # Hw water
    196      66    1  -1.112800  7.865653e+00  1.111237e+01  1.052564e+01  # Ow water
    197      66    2   0.556400  7.157523e+00  1.046850e+01  1.054032e+01  # Hw water
    198      66    2   0.556400  7.828441e+00  1.152970e+01  1.138627e+01  # Hw water
    199      67    1  -1.112800  2.115624e+01  2.014413e+01  1.499720e+00  # Ow water
    200      67    2   0.556400  2.095872e+01  2.108073e+01  1.499704e+00  # Hw water
    201      67    2   0.556400  2.207752e+01  2.009316e+01  1.754423e+00  # Hw water
    202      68    1  -1.112800  1.166452e+01  2.468693e+01  1.835977e+01  # Ow water
    203      68    2   0.556400  1.212799e+01  2.487996e+01  1.754480e+01  # Hw water
    204      68    2   0.556400  1.074725e+01  2.487974e+01  1.816567e+01  # Hw water
    205      69    1  -1.112800  1.400217e+01  1.124512e+01  1.540854e+01  # Ow water
    206      69    2   0.556400  1.412445e+01  1.167694e+01  1.456308e+01  # Hw water
    207      69    2   0.556400  1.466016e+01  1.164299e+01  1.597862e+01  # Hw water
    208      70    1  -1.112800  4.002296e+00  1.398023e+01  2.487913e+01  # Ow water
    209      70    2   0.556400  4.959194e+00  1.400406e+01  2.487658e+01  # Hw water
    210      70    2   0.556400  3.771627e+00  1.351649e+01  2.407417e+01  # Hw water
    211      71    1  -1.112800  2.487924e+01  1.854021e+01  8.933075e+00  # Ow water
    212      71    2   0.556400  2.475986e+01  1.933949e+01  9.446028e+00  # Hw water
    213      71    2   0.556400  2.461509e+01  1.783451e+01  9.523373e+00  # Hw water
    214      72    1  -1.112800  1.290512e+01  5.812758e+00  1.575741e+01  # Ow water
    215      72    2   0.556400  1.255344e+01  5.283004e+00  1.647289e+01  # Hw water
    216      72    2   0.556400  1.243646e+01  6.644865e+00  1.582208e+01  # Hw water
    217      73    1  -1.112800  6.125633e+00  8.612176e+00  1.356735e+01  # Ow water
    218      73    2   0.556400  6.947348e+00  8.123605e+00  1.351927e+01  # Hw water
    219      73    2   0.556400  6.242585e+00  9.339231e+00  1.295584e+01  # Hw water
    220      74    1  -1.112800  1.827991e+01  2.487316e+01  2.397201e+01  # Ow water
    221      74    2   0.556400  1.747826e+01  2.487043e+01  2.344897e+01  # Hw water
    222      74    2   0.556400  1.797458e+01  2.487130e+01  2.487920e+01  # Hw water
    223      75    1  -1.112800  1.351655e+01  1.204729e+01  8.533793e+00  # Ow water
    224      75    2   0.556400  1.365224e+01  1.147137e+01  9.286214e+00  # Hw water
    225      75    2   0.556400  1.256552e+01  1.212929e+01  8.462754e+00  # Hw water
    226      76    1  -1.112800  1.564471e+01  9.941863e+00  2.429320e+01  # Ow water
    227      76    2   0.556400  1.573861e+01  9.191307e+00  2.487978e+01  # Hw water
    228      76    2   0.556400  1.555079e+01  1.069351e+01  2.487838e+01  # Hw water
    229      77    1  -1.112800  2.220947e+01  2.097027e+00  5.669476e+00  # Ow water
    230      77    2   0.556400  2.189246e+01  1.525180e+00  6.368565e+00  # Hw water
    231      77    2   0.556400  2.253090e+01  1.497406e+00  4.996154e+00  # Hw water
    232      78    1  -1.112800  1.410076e+01  4.058262e+00  4.561585e+00  # Ow water
    233      78    2   0.556400  1.345256e+01  4.760428e+00  4.616645e+00  # Hw water
    234      78    2   0.556400  1.464179e+01  4.169251e+00  5.343375e+00  # Hw water
    235      79    1  -1.112800  1.920411e+01  1.502017e+01  6.991881e+00  # Ow water
    236      79    2   0.556400  1.980651e+01  1.527346e+01  6.292467e+00  # Hw water
    237      79    2   0.556400  1.849325e+01  1.565904e+01  6.939425e+00  # Hw water
    238      80    1  -1.112800  5.017372e+00  4.797502e+00  1.784468e+01  # Ow water
    239      80    2   0.556400  5.795965e+00  4.936040e+00  1.730540e+01  # Hw water
    240      80    2   0.556400  4.340597e+00  4.527156e+00  1.722411e+01  # Hw water
    241      81    1  -1.112800  4.146667e+00  2.487934e+01  1.848714e+01  # Ow water
    242      81    2   0.556400  3.714991e+00  2.420797e+01  1.901547e+01  # Hw water
    243      81    2   0.556400  5.053957e+00  2.487819e+01  1.879218e+01  # Hw water
    244      82    1  -1.112800  1.259553e+01  1.817284e+01  1.411294e+01  # Ow water
    245      82    2   0.556400  1.169116e+01  1.816380e+01  1.442641e+01  # Hw water
    246      82    2   0.556400  1.293426e+01  1.730487e+01  1.433230e+01  # Hw water
    247      83    1  -1.112800  1.768524e+00  6.392923e+00  1.219053e+01  # Ow water
    248      83    2   0.556400  1.499820e+00  5.485579e+00  1.204647e+01  # Hw water
    249      83    2   0.556400  2.517560e+00  6.516831e+00  1.160759e+01  # Hw water
    250      84    1  -1.112800  2.437814e+01  9.016046e+00  9.883539e+00  # Ow water
    251      84    2   0.556400  2.487868e+01  8.262631e+00  9.570402e+00  # Hw water
    252      84    2   0.556400  2.487761e+01  9.776450e+00  9.585968e+00  # Hw water
    253      85    1  -1.112800  5.738420e+00  1.905616e+01  1.099007e+01  # Ow water
    254      85    2   0.556400  5.724058e+00  1.945253e+01  1.186122e+01  # Hw water
    255      85    2   0.556400  4.986258e+00  1.943999e+01  1.053933e+01  # Hw water
    256      86    1  -1.112800  2.022495e+01  6.539261e+00  8.467953e+00  # Ow water
    257      86    2   0.556400  1.946070e+01  6.123184e+00  8.069180e+00  # Hw water
    258      86    2   0.556400  1.992909e+01  6.798463e+00  9.340596e+00  # Hw water
    259      87    1  -1.112800  4.536463e+00  1.017217e+01  9.767799e+00  # Ow water
    260      87    2   0.556400  4.609477e+00  1.093299e+01  9.191571e+00  # Hw water
    261      87    2   0.556400  4.694225e+00  9.421472e+00  9.195262e+00  # Hw water
    262      88    1  -1.112800  1.215767e+01  1.839074e+01  8.583960e+00  # Ow water
    263      88    2   0.556400  1.152576e+01  1.875225e+01  9.205433e+00  # Hw water
    264      88    2   0.556400  1.281861e+01  1.796797e+01  9.132284e+00  # Hw water
    265      89    1  -1.112800  1.499909e+00  2.487892e+01  4.263361e+00  # Ow water
    266      89    2   0.556400  2.426072e+00  2.485680e+01  4.022610e+00  # Hw water
    267      89    2   0.556400  1.499687e+00  2.484373e+01  5.219912e+00  # Hw water
    268      90    1  -1.112800  1.523693e+00  7.768132e+00  2.487879e+01  # Ow water
    269      90    2   0.556400  1.499826e+00  8.032442e+00  2.395912e+01  # Hw water
    270      90    2   0.556400  1.503897e+00  6.811456e+00  2.485414e+01  # Hw water
    271      91    1  -1.112800  6.033239e+00  1.839015e+01  2.251045e+01  # Ow water
    272      91    2   0.556400  6.028498e+00  1.747106e+01  2.224308e+01  # Hw water
    273      91    2   0.556400  6.095405e+00  1.887856e+01  2.168959e+01  # Hw water
    274      92    1  -1.112800  1.503171e+00  4.012272e+00  2.461249e+01  # Ow water
    275      92    2   0.556400  1.504684e+00  3.984819e+00  2.365568e+01  # Hw water
    276      92    2   0.556400  1.498734e+00  3.092920e+00  2.487895e+01  # Hw water
    277      93    1  -1.112800  5.251160e+00  2.209749e+01  9.896063e+00  # Ow water
    278      93    2   0.556400  5.678311e+00  2.261273e+01  9.211734e+00  # Hw water
    279      93    2   0.556400  5.481082e+00  2.254360e+01  1.071114e+01  # Hw water
    280      94    1  -1.112800  1.860947e+01  1.748471e+01  1.859504e+00  # Ow water
    281      94    2   0.556400  1.928874e+01  1.805378e+01  1.497583e+00  # Hw water
    282      94    2   0.556400  1.779172e+01  1.782834e+01  1.499748e+00  # Hw water
    283      95    1  -1.112800  1.057777e+01  8.451426e+00  6.186939e+00  # Ow water
    284      95    2   0.556400  9.866951e+00  7.822799e+00  6.312602e+00  # Hw water
    285      95    2   0.556400  1.030919e+01  9.220906e+00  6.688924e+00  # Hw water
    286      96    1  -1.112800  2.057011e+01  1.499410e+00  1.241619e+01  # Ow water
    287      96    2   0.556400  2.091705e+01  2.345727e+00  1.213403e+01  # Hw water
    288      96    2   0.556400  2.068049e+01  1.499722e+00  1.336700e+01  # Hw water
    289      97    1  -1.112800  1.548776e+00  3.325750e+00  9.104337e+00  # Ow water
    290      97    2   0.556400  1.501146e+00  2.416733e+00  9.400393e+00  # Hw water
    291      97    2   0.556400  1.499325e+00  3.842891e+00  9.908296e+00  # Hw water
    292      98    1  -1.112800  2.054074e+01  1.226528e+01  2.036209e+00  # Ow water
    293      98    2   0.556400  2.007764e+01  1.244628e+01  2.854133e+00  # Hw water
    294      98    2   0.556400  2.085646e+01  1.136684e+01  2.132935e+00  # Hw water
    295      99    1  -1.112800  2.469242e+01  1.005909e+01  1.706925e+01  # Ow water
    296      99    2   0.556400  2.386786e+01  1.022863e+01  1.752486e+01  # Hw water
    297      99    2   0.556400  2.487830e+01  9.136655e+00  1.724471e+01  # Hw water
    298     100    1  -1.112800  9.952007e+00  1.900781e+01  1.247909e+01  # Ow water
    299     100    2   0.556400  1.042865e+01  1.866246e+01  1.172426e+01  # Hw water
    300     100    2   0.556400  1.034691e+01  1.986463e+01  1.264077e+01  # Hw water
    301     101    1  -1.112800  3.556444e+00  1.564474e+00  2.450922e+01  # Ow water
    302     101    2   0.556400  4.462265e+00  1.499676e+00  2.420670e+01  # Hw water
    303     101    2   0.556400  3.031747e+00  1.500434e+00  2.371121e+01  # Hw water
    304     102    1  -1.112800  2.176058e+01  1.712928e+00  2.488173e+01  # Ow water
    305     102    2   0.556400  2.142855e+01  2.610687e+00  2.487860e+01  # Hw water
    306     102    2   0.556400  2.188434e+01  1.499587e+00  2.395686e+01  # Hw water
    307     103    1  -1.112800  1.753960e+01  2.487933e+01  7.536040e+00  # Ow water
    308     103    2   0.556400  1.746692e+01  2.486325e+01  6.581740e+00  # Hw water
    309     103    2   0.556400  1.663421e+01  2.485934e+01  7.846045e+00  # Hw water
    310     104    1  -1.112800  2.300969e+01  2.194121e+01  2.487968e+01  # Ow water
    311     104    2   0.556400  2.207904e+01  2.171732e+01  2.488012e+01  # Hw water
    312     104    2   0.556400  2.316678e+01  2.231255e+01  2.401154e+01  # Hw water
    313     105    1  -1.112800  2.238100e+01  2.190031e+01  9.242484e+00  # Ow water
    314     105    2   0.556400  2.198435e+01  2.265276e+01  8.803476e+00  # Hw water
    315     105    2   0.556400  2.256382e+01  2.127977e+01  8.536982e+00  # Hw water
    316     106    1  -1.112800  2.009332e+01  2.019974e+01  1.479913e+01  # Ow water
    317     106    2   0.556400  1.982529e+01  2.101762e+01  1.521800e+01  # Hw water
    318     106    2   0.556400  1.931117e+01  1.964862e+01  1.482632e+01  # Hw water
    319     107    1  -1.112800  1.504545e+00  4.699045e+00  1.483262e+01  # Ow water
    320     107    2   0.556400  1.656847e+00  3.993550e+00  1.420388e+01  # Hw water
    321     107    2   0.556400  1.973046e+00  4.423583e+00  1.562056e+01  # Hw water
    322     108    1  -1.112800  1.673978e+01  1.250969e+01  1.440418e+01  # Ow water
    323     108    2   0.556400  1.629588e+01  1.334549e+01  1.454777e+01  # Hw water
    324     108    2   0.556400  1.669645e+01  1.237446e+01  1.345757e+01  # Hw water
    325     109    1  -1.112800  1.932374e+01  1.297242e+01  1.156765e+01  # Ow water
    326     109    2   0.556400  1.936974e+01  1.288881e+01  1.252008e+01  # Hw water
    327     109    2   0.556400  1.841769e+01  1.275258e+01  1.135092e+01  # Hw water
    328     110    1  -1.112800  2.483979e+01  3.821106e+00  1.009470e+01  # Ow water
    329     110    2   0.556400  2.487968e+01  4.556607e+00  9.483412e+00  # Hw water
    330     110    2   0.556400  2.487879e+01  3.043679e+00  9.537643e+00  # Hw water
    331     111    1  -1.112800  1.553915e+00  1.500590e+00  1.720387e+01  # Ow water
    332     111    2   0.556400  1.499305e+00  2.424996e+00  1.744619e+01  # Hw water
    333     111    2   0.556400  1.502316e+00  1.499591e+00  1.624806e+01  # Hw water
    334     112    1  -1.112800  2.464351e+01  1.460677e+01  4.543870e+00  # Ow water
    335     112    2   0.556400  2.488039e+01  1.450841e+01  5.466066e+00  # Hw water
    336     112    2   0.556400  2.487517e+01  1.551095e+01  4.331704e+00  # Hw water
    337     113    1  -1.112800  7.973850e+00  1.715329e+01  5.297785e+00  # Ow water
    338     113    2   0.556400  7.047896e+00  1.738967e+01  5.243386e+00  # Hw water
    339     113    2   0.556400  8.052499e+00  1.636570e+01  4.759506e+00  # Hw water
    340     114    1  -1.112800  1.529217e+01  2.180334e+01  2.000402e+01  # Ow water
    341     114    2   0.556400  1.585842e+01  2.105920e+01  1.979947e+01  # Hw water
    342     114    2   0.556400  1.562895e+01  2.251717e+01  1.946250e+01  # Hw water
    343     115    1  -1.112800  2.253563e+01  8.473643e+00  2.091892e+00  # Ow water
    344     115    2   0.556400  2.191605e+01  8.921778e+00  1.516112e+00  # Hw water
    345     115    2   0.556400  2.319921e+01  8.118583e+00  1.500444e+00  # Hw water
    346     116    1  -1.112800  1.472747e+01  2.404157e+01  2.229938e+01  # Ow water