1608
 Atoms. Timestep: 0
Ow 23.7367 1.23148 24.8775
H 23.1586 0.46953 24.9154
H 24.3502 1.10348 25.601
Ow 8.86104 7.33993 14.0915
H 8.39412 8.06609 13.678
H 9.18427 7.7013 14.9168
Ow 9.61826 23.6336 22.6302
H 9.57813 23.5376 21.6786
H 9.64309 24.5794 22.7751
Ow 23.8332 12.0489 12.4984
H 23.4292 11.4742 13.1486
H 23.2328 12.791 12.4279
Ow 6.51609 5.00653 23.2481
H 6.82046 4.93045 24.1525
H 7.2922 4.8261 22.7177
Ow 18.3053 2.99008 25.6157
H 17.8442 2.81498 24.7954
H 18.9147 2.25794 25.7094
Ow 23.9015 8.48746 16.0594
H 24.5358 9.16551 15.8268
H 24.4302 7.70189 16.199
Ow 22.707 19.0383 13.5625
H 21.9068 18.5537 13.7652
H 23.3507 18.7124 14.1915
Ow 24.7647 12.7726 4.1
H 24.3016 12.6081 4.92139
H 24.093 13.115 3.51019
Ow 7.53993 5.74473 19.0527
H 6.83589 5.1073 18.9334
H 7.32109 6.45889 18.4541
Ow 16.5809 22.9261 11.9346
H 16.1177 22.0888 11.9597
H 15.9131 23.5622 11.6783
Ow 14.0918 9.71237 15.8452
H 13.738 10.54 16.1709
H 14.479 9.93366 14.9982
Ow 11.2386 23.2038 14.9215
H 11.4359 22.4969 14.3071
H 12.0934 23.5688 15.15
Ow 11.2912 1.82176 6.20931
H 10.6563 2.23673 5.62542
H 11.7993 1.24409 5.63974
Ow 14.0055 9.68774 6.54523
H 14.4808 9.98668 7.32046
H 14.5161 8.94534 6.22217
Ow 7.29774 8.06728 17.4481
H 7.35359 7.91007 16.5056
H 8.20642 8.18085 17.7267
Ow 2.7396 1.03062 6.38253
H 3.40609 1.37868 6.97487
H 2.65796 1.69364 5.69699
Ow 25.707 15.8938 13.0124
H 0.929961 15.477 12.8855
H 25.5943 15.9255 13.9624
Ow 23.9317 17.7139 11.4258
H 23.4636 18.2869 12.0331
H 23.6712 18.0207 10.5573
Ow 20.1643 5.28142 14.9873
H 19.3453 4.8883 14.6858
H 20.3879 5.91954 14.3098
Ow 14.2933 8.97301 24.8245
H 15.2379 8.97726 24.6702
H 14.2054 9.01911 25.7766
Ow 6.05945 6.04938 12.0602
H 5.57732 5.60266 11.3643
H 6.98005 5.8751 11.8643
Ow 15.7786 12.8254 15.307
H 16.3521 12.5496 16.022
H 14.9118 12.5058 15.5576
Ow 9.63429 13.4315 3.10925
H 8.75528 13.8099 3.0911
H 10.053 13.7588 2.31314
Ow 25.7516 15.4125 15.8536
H 25.3 15.001 16.5904
H 25.2502 16.209 15.6793
Ow 17.611 5.87408 24.7959
H 17.7236 6.8148 24.6595
H 16.6626 5.7478 24.8256
Ow 12.1424 14.7605 18.5171
H 11.5899 15.4905 18.7965
H 11.7225 13.9853 18.89
Ow 17.3537 15.0257 22.0998
H 18.1121 15.3292 22.5988
H 16.6885 14.8409 22.7628
Ow 4.64939 12.001 9.85313
H 4.31843 12.4552 9.07824
H 3.8629 11.7288 10.326
Ow 18.2129 0.94192 13.8343
H 17.3327 1.15837 14.1418
H 18.3143 25.6403 14.0327
Ow 12.0342 18.766 2.583
H 12.6542 18.0422 2.49384
H 11.5407 18.5627 3.37757
Ow 7.56125 2.74273 6.91761
H 6.64381 2.75823 7.19018
H 7.82039 3.6639 6.89472
Ow 12.3221 23.9287 23.816
H 11.4604 23.8861 23.4014
H 12.6356 23.0244 23.8116
Ow 24.0156 17.3029 15.2293
H 23.2239 16.7705 15.1517
H 23.9795 17.6588 16.1171
Ow 6.18407 13.713 5.63779
H 5.39843 13.8999 6.15168
H 6.79958 13.3385 6.26796
Ow 2.484 3.96706 22.4149
H 3.24482 4.51858 22.2326
H 2.74069 3.44837 23.1773
Ow 17.3973 1.00741 20.3971
H 18.2142 0.557762 20.181
H 17.5879 1.93419 20.2522
Ow 7.13515 19.7586 5.11379
H 6.4079 20.145 5.60169
H 7.33059 20.3975 4.42832
Ow 20.2152 0.780888 1.27272
H 20.9084 25.8957 0.859294
H 20.6752 1.35565 1.88448
Ow 21.4259 21.5974 6.20539
H 21.3963 21.3411 7.12716
H 22.2761 22.0248 6.10231
Ow 11.7184 14.0923 0.773953
H 12.023 13.3471 25.8854
H 11.0377 14.4963 25.8651
Ow 18.624 17.3901 16.8323
H 18.6888 17.6232 15.9062
H 17.9028 17.9246 17.1645
Ow 20.9465 13.0566 20.8416
H 21.2421 13.8424 20.382
H 20.1034 12.8465 20.4399
Ow 6.36333 12.1431 15.3913
H 6.83971 11.5753 14.7856
H 5.81892 12.6925 14.8273
Ow 17.094 8.6128 19.1728
H 18.0426 8.52214 19.083
H 16.7922 8.85653 18.2977
Ow 25.7373 4.31817 6.49013
H 24.8121 4.52339 6.35533
H 25.8687 4.41084 7.43373
Ow 9.93761 3.9482 16.0955
H 9.08857 4.1469 15.7007
H 10.1173 3.04453 15.8361
Ow 2.68879 4.96427 12.2123
H 2.88201 4.24125 12.8091
H 3.40664 4.95132 11.5793
Ow 13.5937 16.5257 2.72394
H 14.3105 16.421 2.09818
H 14.0242 16.561 3.57816
Ow 2.35161 0.828728 16.7666
H 2.13016 1.72214 16.5039
H 3.161 0.920062 17.2693
Ow 7.06624 22.9629 0.458732
H 7.74056 23.5454 25.7385
H 7.46355 22.5771 1.23948
Ow 3.69949 21.0657 14.9691
H 2.76929 20.8655 15.0736
H 3.86867 20.9397 14.0354
Ow 12.5175 7.581 15.2007
H 13.0696 8.34359 15.3737
H 11.6759 7.79801 15.6019
Ow 6.01548 13.6847 11.619
H 6.80509 13.2845 11.9831
H 5.55512 12.9621 11.1922
Ow 21.8413 13.7458 8.47903
H 21.0477 13.4648 8.02363
H 21.6697 13.554 9.40096
Ow 11.6271 20.7951 7.16012
H 10.762 20.533 7.47502
H 12.2063 20.0819 7.4284
Ow 8.32083 14.9795 21.3162
H 8.08251 14.1423 20.918
H 7.48315 15.4003 21.5096
Ow 11.4509 19.4098 25.4465
H 12.0783 19.9878 25.0124
H 11.7901 19.3123 0.706876
Ow 17.5295 13.0946 8.93432
H 16.6584 12.7722 9.16579
H 18.0098 12.313 8.66108
Ow 24.9033 12.3617 23.32
H 24.1192 11.8972 23.0273
H 24.9389 12.2017 24.2631
Ow 15.0415 2.15113 1.17863
H 15.2829 2.37597 2.07718
H 15.2113 2.94894 0.677733
Ow 1.12412 22.1622 2.83836
H 1.36827 21.9556 3.74055
H 1.89552 21.9294 2.32168
Ow 21.1502 16.4226 8.35674
H 21.4084 15.5082 8.47315
H 21.9371 16.9234 8.57157
Ow 25.1359 19.5463 23.0895
H 25.58 19.7635 22.2698
H 24.9959 18.6006 23.0434
Ow 16.0569 12.1154 5.75957
H 15.5702 11.294 5.82765
H 16.5294 12.0463 4.92998
Ow 11.3744 14.1654 22.0628
H 12.2679 14.3654 21.7838
H 11.3542 13.2113 22.1374
Ow 14.0806 25.8554 8.06708
H 13.2355 0.497796 8.42503
H 13.9707 25.9179 7.11827
Ow 23.6453 1.18228 3.7334
H 24.0118 25.9487 3.54026
H 23.4562 1.15822 4.67143
Ow 14.5109 4.44914 19.6656
H 14.2138 4.06937 20.4925
H 15.4643 4.3697 19.6939
Ow 7.83503 1.62319 16.0805
H 7.63739 2.31503 15.4492
H 8.39509 1.01315 15.6005
Ow 7.04342 23.6703 4.18865
H 7.54433 22.9292 3.84798
H 7.42363 24.4355 3.75725
Ow 17.6435 23.0499 25.1936
H 17.1334 22.9133 24.3952
H 18.4525 22.5594 25.0485
Ow 1.03577 12.1215 7.71441
H 1.61666 11.3781 7.55283
H 1.60041 12.7858 8.1095
Ow 22.8468 25.401 22.5353
H 23.0713 24.6774 21.9503
H 22.4381 24.9802 23.2917
Ow 5.67209 6.21867 2.28355
H 5.34834 7.09443 2.07269
H 5.48669 6.11248 3.2166
Ow 23.415 18.4242 3.18842
H 24.1778 17.9139 2.91639
H 22.7104 18.1283 2.61213
Ow 12.3495 8.97129 8.54794
H 12.8201 9.09591 7.72383
H 12.9002 8.37091 9.05043
Ow 19.045 7.45209 3.36058
H 18.97 7.90515 4.20043
H 19.5389 8.05568 2.80556
Ow 23.9819 18.6701 17.6107
H 23.878 18.3319 18.5002
H 24.6406 19.3599 17.6916
Ow 8.04576 22.7204 14.3174
H 7.13398 22.8311 14.5869
H 8.01388 22.7116 13.3608
Ow 18.5411 1.14759 11.1537
H 18.4016 0.977258 12.0852
H 19.3199 0.637822 10.9305
Ow 18.4773 23.3923 9.68497
H 17.8186 23.0406 10.2838
H 18.0295 24.103 9.22611
Ow 18.372 20.4494 10.127
H 17.4737 20.3806 10.4504
H 18.6405 19.5442 9.96973
Ow 8.12946 7.72597 3.00341
H 7.33311 7.19497 3.01294
H 8.78448 7.16869 2.58314
Ow 14.7166 3.11403 17.0557
H 15.4649 2.52909 16.9366
H 14.784 3.40798 17.9641
Ow 18.312 12.7965 19.3413
H 17.4985 12.6081 19.8093
H 18.2536 13.7267 19.1232
Ow 20.9773 24.1482 4.4933
H 21.0672 23.6577 5.31036
H 20.7127 25.026 4.76822
Ow 0.462614 10.2209 15.8901
H 0.747285 10.7065 15.1159
H 1.19427 9.63681 16.0895
Ow 17.8512 4.86727 2.06063
H 17.0287 5.3444 2.17059
H 17.6138 3.94824 2.18433
Ow 24.2366 22.454 15.4993
H 24.622 22.1769 16.3305
H 24.9672 22.8328 15.0105
Ow 21.925 10.1165 9.76128
H 21.2281 10.2687 10.3996
H 21.4647 9.8959 8.95151
Ow 12.6393 21.2993 20.8045
H 12.6364 21.368 21.7592
H 11.8163 21.7052 20.5321
Ow 0.958759 19.7315 15.5438
H 0.671126 20.328 16.235
H 1.25168 18.9481 16.0094
Ow 21.2681 19.2196 17.1636
H 22.1921 19.0808 17.371
H 21.0144 18.4422 16.666
Ow 19.5986 18.3152 3.37466
H 19.3545 19.2258 3.20866
H 18.819 17.9263 3.77115
Ow 20.493 14.1716 16.1837
H 20.5984 13.2227 16.2524
H 20.7551 14.505 17.0419
Ow 24.8519 3.60327 3.8079
H 24.5638 2.69141 3.84977
H 25.0525 3.74937 2.88342
Ow 2.06762 12.889 4.72942
H 2.10747 12.6972 5.66636
H 2.00961 13.8433 4.68205
Ow 23.2934 17.8277 20.0455
H 23.9506 17.3986 20.5934
H 22.8112 17.1071 19.64
Ow 4.16287 18.2878 10.336
H 4.40962 19.0802 10.8129
H 4.56807 17.5747 10.8294
Ow 24.5472 9.90823 7.08776
H 23.6207 9.69856 6.96967
H 24.8932 9.97632 6.19787
Ow 15.7692 18.0269 16.351
H 15.4971 17.5402 15.5729
H 16.3556 18.7055 16.0167
Ow 24.5863 11.4315 9.75488
H 25.0243 10.718 10.219
H 23.6627 11.3381 9.98791
Ow 15.5198 10.0399 9.0008
H 15.3467 10.8118 9.53972
H 16.3971 10.1861 8.64685
Ow 1.2176 23.6448 25.0305
H 2.06021 23.2963 25.3216
H 1.24276 24.5697 25.276
Ow 23.8827 15.0854 23.7252
H 24.6197 15.2586 24.311
H 24.053 14.2098 23.3779
Ow 24.9146 5.40442 24.7268
H 25.0816 4.55514 25.1355
H 25.669 5.54823 24.1553
Ow 14.949 10.249 13.1819
H 14.6057 9.75164 12.4396
H 15.8764 10.3728 12.9795
Ow 23.157 23.37 20.5688
H 23.0758 22.4169 20.6041
H 22.4807 23.6457 19.9499
Ow 8.2042 16.0807 6.73
H 7.95473 15.1777 6.92684
H 7.46052 16.4341 6.24192
Ow 5.46675 23.5235 14.9305
H 5.81402 24.1419 15.5734
H 4.56665 23.8128 14.7811
Ow 16.867 7.35412 21.8168
H 17.3054 7.87166 22.4922
H 17.4345 6.59356 21.6912
Ow 5.98815 16.0485 22.269
H 6.19447 16.983 22.2869
H 6.33926 15.7094 23.0924
Ow 22.7302 20.4157 24.3153
H 23.1657 20.7817 25.0851
H 23.4459 20.1248 23.7502
Ow 19.9639 21.1381 3.08163
H 20.7804 21.3468 2.62787
H 20.0474 21.5647 3.93441
Ow 22.3777 23.1721 10.2857
H 21.9075 24.0026 10.213
H 23.1649 23.2947 9.75509
Ow 11.4386 23.191 0.998918
H 11.444 22.6889 1.81385
H 12.1051 22.7721 0.454479
Ow 11.6378 3.43684 11.1572
H 11.722 3.00036 10.3094
H 12.1218 2.87717 11.7644
Ow 25.0161 23.9516 10.1033
H 24.7008 24.4342 10.8675
H 25.5639 24.5794 9.63218
Ow 20.6512 5.17161 2.86948
H 21.4028 5.67938 3.17522
H 20.9543 4.26372 2.88094
Ow 11.4734 21.2726 12.5303
H 10.6574 20.889 12.2089
H 11.7499 21.8673 11.8331
Ow 5.55123 1.38555 2.7343
H 5.41647 1.50113 1.79371
H 5.17821 2.17386 3.12883
Ow 25.9736 3.87802 9.37908
H 25.9515 4.65978 9.93097
H 0.810259 3.22699 9.90375
Ow 19.4384 10.5224 10.9897
H 19.1685 10.5525 10.0718
H 19.7452 11.4092 11.1788
Ow 21.2383 17.1042 22.0153
H 21.0004 16.8429 21.1257
H 22.1852 16.9712 22.0593
Ow 1.16564 5.81763 4.30053
H 1.53222 6.28183 5.05311
H 1.73077 6.06374 3.56822
Ow 24.4659 8.76618 23.1394
H 24.559 9.56029 23.6657
H 25.0392 8.90881 22.3863
Ow 25.3753 5.56147 21.3345
H 0.57361 5.95808 21.6066
H 24.7618 5.78152 22.0355
Ow 14.3374 24.4691 12.0619
H 14.3468 24.2199 12.986
H 14.0303 25.3757 12.0609
Ow 1.34597 17.7826 24.1705
H 1.00433 17.045 24.676
H 2.16146 17.4558 23.7905
Ow 21.2999 17.4482 1.35317
H 21.6691 16.5883 1.55441
H 20.7908 17.6786 2.13031
Ow 24.1882 6.2903 13.3037
H 24.8588 6.3089 13.9865
H 23.8324 7.17885 13.2925
Ow 5.3393 18.5223 17.8302
H 6.03578 18.3268 18.457
H 4.56437 18.6725 18.3716
Ow 9.14881 25.4485 14.3069
H 9.91432 26.0228 14.3287
H 8.70383 25.6727 13.4896
Ow 24.7022 1.79742 15.3113
H 24.4821 1.21734 16.0402
H 24.6594 1.23652 14.5368
Ow 10.7061 16.4823 16.3501
H 11.6631 16.4652 16.3619
H 10.4505 15.5624 16.2812
Ow 21.0574 2.38311 9.19616
H 21.6825 2.09418 8.53129
H 20.232 2.48347 8.72203
Ow 10.0059 4.68459 18.8319
H 10.2139 4.40124 17.9415
H 9.14456 5.09557 18.7578
Ow 18.2896 15.6458 19.3877
H 19.2042 15.389 19.5048
H 18.269 16.0782 18.534
Ow 17.7297 20.62 1.55044
H 18.0424 20.1378 0.785031
H 18.5165 21.0216 1.91901
Ow 24.8898 16.9873 21.9309
H 24.6871 16.2688 22.5301
H 25.7966 16.8312 21.6671
Ow 15.5105 17.2621 20.3795
H 15.126 17.9014 20.9793
H 15.4217 17.6613 19.5141
Ow 14.0993 14.2844 6.13181
H 14.7895 13.6213 6.13843
H 13.5 14.0002 5.44168
Ow 0.430019 9.33723 21.0168
H 0.706783 10.2513 21.0813
H 25.888 9.20358 20.0846
Ow 24.5714 14.4733 18.3813
H 24.7072 13.8652 19.108
H 23.6231 14.5986 18.3473
Ow 9.60953 1.67593 0.971372
H 10.4408 1.33967 1.30624
H 9.63434 1.48639 25.6628
Ow 13.1784 4.74325 5.02257
H 12.9885 4.38042 5.88773
H 13.8513 5.405 5.18229
Ow 4.8358 21.801 4.26158
H 4.74763 21.2087 5.00837
H 5.44067 21.3531 3.67018
Ow 4.26539 24.5255 3.0414
H 4.76704 25.2795 2.73155
H 4.22279 23.9389 2.28623
Ow 23.0672 16.4122 5.49518
H 22.7237 15.6906 4.96835
H 22.4371 16.5092 6.20919
Ow 2.90298 17.5968 13.0907
H 2.24466 16.9637 13.377
H 3.33888 17.1722 12.3518
Ow 12.5063 4.31197 7.6365
H 11.5517 4.24698 7.60802
H 12.691 4.77613 8.453
Ow 6.04646 21.2283 17.1098
H 6.77801 21.2435 17.7269
H 5.76274 20.3142 17.0965
Ow 13.082 11.8655 25.0204
H 13.7909 12.4363 24.7241
H 13.4656 11.3578 25.7354
Ow 20.4155 19.54 22.5314
H 19.7458 20.0093 22.034
H 20.703 18.8398 21.9455
Ow 16.5124 21.964 16.2914
H 15.7637 22.4408 15.9331
H 16.4884 21.1141 15.8517
Ow 2.09269 7.11037 6.55599
H 2.41287 8.00013 6.70448
H 2.66236 6.55788 7.09121
Ow 17.4169 4.57713 13.9778
H 17.7896 4.34452 13.1274
H 16.4789 4.67077 13.8112
Ow 8.60151 19.0873 0.952403
H 8.90403 18.2823 1.37275
H 8.45353 19.6953 1.67676
Ow 1.7372 11.5595 18.2516
H 2.50588 11.9728 17.8585
H 1.23113 11.236 17.5063
Ow 2.75953 7.29506 13.8238
H 2.89721 6.47726 13.3458
H 2.19557 7.05189 14.558
Ow 18.2498 21.4535 7.35069
H 18.0119 22.0682 6.65664
H 17.4315 21.0057 7.56548
Ow 24.3081 2.79738 22.5793
H 23.4015 3.02187 22.3693
H 24.8166 3.14 21.8443
Ow 6.88215 23.611 22.9293
H 6.66506 23.3142 23.8131
H 7.83549 23.5407 22.88
Ow 22.7868 6.93192 3.65102
H 22.5563 7.36884 4.4709
H 22.8041 7.63458 3.00124
Ow 5.6205 16.3697 2.79194
H 4.70846 16.2161 3.03856
H 5.56791 16.8721 1.97889
Ow 0.496977 20.5581 20.7188
H 1.36768 20.1754 20.6108
H 25.8247 20.7244 19.8257
Ow 19.1074 9.20368 14.6113
H 19.7273 8.89153 13.9521
H 18.5646 9.84123 14.1475
Ow 9.06984 11.783 16.7027
H 8.32145 11.735 16.1078
H 9.4993 10.9318 16.6173
Ow 20.0394 12.8303 23.748
H 20.4036 12.7864 22.8638
H 19.0999 12.6923 23.6276
Ow 11.1781 23.8496 6.87574
H 10.2228 23.791 6.89159
H 11.3588 24.7587 6.63696
Ow 21.607 1.48373 19.0994
H 21.3971 2.15271 19.7511
H 20.865 0.879633 19.1281
Ow 21.0321 12.5724 2.42483
H 21.2459 13.4571 2.72129
H 20.5734 12.7018 1.59471
Ow 15.3012 15.6798 14.4223
H 14.68 15.7665 15.1454
H 14.7536 15.5249 13.6527
Ow 4.09552 11.7339 23.6131
H 4.22052 12.4975 24.1766
H 4.87252 11.1954 23.7629
Ow 6.19012 18.8368 23.1222
H 6.4735 18.4549 23.953
H 7.00341 19.0818 22.6809
Ow 17.468 2.32702 3.13184
H 16.7193 2.47739 3.70904
H 17.3757 1.41648 2.85141
Ow 7.90854 11.9978 6.92928
H 7.53996 11.1339 6.74489
H 8.59958 11.832 7.57054
Ow 4.29442 22.9127 0.923289
H 4.02464 21.999 0.830678
H 5.17762 22.9406 0.555311
Ow 4.86136 18.2814 14.8456
H 4.61332 19.1998 14.9522
H 4.41664 18.0042 14.0446
Ow 17.1558 2.2203 23.2364
H 16.232 2.38901 23.051
H 17.4547 1.68651 22.5003
Ow 9.1857 14.0056 24.8797
H 8.41301 14.4922 25.1667
H 8.86124 13.1226 24.7028
Ow 9.88152 17.8689 9.511
H 10.0602 17.7938 8.57363
H 8.92861 17.8095 9.57919
Ow 4.20093 8.39709 21.1287
H 4.70388 8.66074 20.3582
H 4.42317 7.47484 21.2563
Ow 11.2479 3.99512 24.0743
H 10.667 3.23641 24.0179
H 12.0916 3.67575 23.7543
Ow 3.86946 11.5378 2.42235
H 4.28103 11.5321 3.28653
H 4.22978 12.312 1.98999
Ow 11.6745 9.24747 2.21111
H 11.0602 9.61188 1.57383
H 12.5336 9.54914 1.91598
Ow 14.3854 4.41726 14.4134
H 14.1567 3.74928 13.7671
H 14.3745 5.23929 13.9232
Ow 12.3164 11.0963 10.624
H 12.511 10.4818 9.91636
H 13.1185 11.6091 10.7239
Ow 15.744 12.9511 20.4812
H 16.2621 12.8343 21.2775
H 15.0949 13.6155 20.7125
Ow 4.86024 24.6771 5.95305
H 4.32762 25.4623 5.82655
H 4.63144 24.3707 6.83056
Ow 13.51 22.6918 5.33132
H 13.6064 23.642 5.26757
H 12.9166 22.4622 4.61618
Ow 20.16 22.3442 23.9831
H 19.9151 22.6366 23.1052
H 20.5546 23.1148 24.3914
Ow 3.09525 0.908131 21.6128
H 2.19415 0.648742 21.8051
H 3.41216 1.29713 22.428
Ow 11.0641 1.53676 14.9997
H 11.7381 1.65683 14.3308
H 11.553 1.40197 15.8115
Ow 14.7281 16.7661 5.17638
H 14.4721 16.0766 5.78904
H 14.7098 17.569 5.6973
Ow 10.293 14.0299 6.03273
H 9.8825 13.5565 6.75638
H 10.2529 14.9498 6.29428
Ow 0.852517 3.08147 20.3174
H 0.882246 2.173 20.0173
H 1.46196 3.11067 21.0549
Ow 2.36872 10.0404 24.9328
H 2.92316 10.7341 24.5755
H 1.496 10.4309 24.9794
Ow 24.8804 15.3176 7.29273
H 24.3596 15.9176 6.75894
H 25.6455 15.1186 6.75299
Ow 3.84046 0.845941 12.6437
H 4.06914 0.63946 11.7374
H 3.47447 25.6615 12.9902
Ow 19.7029 1.03267 4.759
H 19.4898 1.37095 5.62871
H 18.8587 0.971026 4.31201
Ow 10.5847 20.7042 17.611
H 11.4539 20.4421 17.3077
H 10.7285 21.5368 18.0609
Ow 10.6259 7.72255 6.53842
H 11.1976 8.17671 7.15735
H 10.2032 7.03951 7.05899
Ow 24.3885 20.8933 2.35874
H 25.3058 20.8557 2.62972
H 24.0733 19.9945 2.4533
Ow 6.20547 24.9753 17.3186
H 5.94276 24.8456 18.2299
H 6.55067 25.8677 17.293
Ow 19.9748 20.7346 12.6911
H 19.8228 20.6717 11.7481
H 20.1967 19.8427 12.9584
Ow 25.5909 1.6827 6.91404
H 24.6964 1.40385 7.11
H 25.5084 2.60752 6.68135
Ow 1.44866 3.36051 15.9941
H 0.621581 2.99825 15.6764
H 1.22806 4.24665 16.281
Ow 20.2323 12.3262 6.76946
H 19.7689 11.6157 7.21303
H 19.5396 12.8499 6.36678
Ow 25.7813 3.47421 1.22377
H 1.04171 3.78648 1.05933
H 25.8349 2.52542 1.10911
Ow 25.1995 15.4955 10.0576
H 25.8404 14.7891 10.1385
H 24.9053 15.4496 9.14793
Ow 18.4888 14.8228 10.8476
H 18.1999 14.1629 10.2172
H 19.4227 14.6494 10.9655
Ow 11.743 13.7956 14.5374
H 10.8617 13.9693 14.2066
H 12.2869 13.7364 13.7519
Ow 17.3802 12.2306 24.4141
H 16.9313 11.3956 24.546
H 16.6759 12.8599 24.2588
Ow 3.21505 3.01565 14.1223
H 3.3612 2.16305 13.7125
H 2.52054 2.85855 14.762
Ow 0.576652 6.23853 10.9305
H 25.5015 6.37745 11.5635
H 1.35346 6.08012 11.4669
Ow 6.00025 9.98888 8.38509
H 5.35189 9.76713 7.71675
H 5.50339 10.4586 9.05495
Ow 16.9813 13.6092 12.8015
H 17.5763 14.071 12.2107
H 16.3486 13.1852 12.2217
Ow 2.21799 8.45939 9.54092
H 2.39721 8.88737 8.70369
H 2.26065 9.16574 10.1855
Ow 6.44466 8.76673 5.1458
H 5.61194 9.20944 5.30955
H 6.23885 7.83459 5.21643
Ow 19.2579 22.3312 17.4868
H 19.9612 22.2334 16.8449
H 19.5216 23.0817 18.0192
Ow 10.1544 6.61442 1.25979
H 9.88208 5.80134 1.68519
H 10.0321 6.44883 25.9543
Ow 15.2981 22.3179 0.989497
H 16.144 22.3698 0.544635
H 14.7003 21.969 25.9577
Ow 6.20806 17.3594 5.25929
H 6.06204 17.0571 4.36291
H 6.70741 18.1701 5.16078
Ow 18.2265 3.51923 17.2123
H 19.1627 3.58496 17.0239
H 18.0123 2.60114 17.0466
Ow 4.94896 15.7334 16.299
H 5.09949 15.3104 15.4536
H 5.70041 15.4762 16.8332
Ow 5.80178 23.945 20.2522
H 6.13763 23.923 21.1482
H 4.89905 23.6355 20.3266
Ow 16.1318 16.1937 9.54475
H 15.7389 15.3628 9.27745
H 15.4643 16.6105 10.0898
Ow 8.27232 6.78479 21.6581
H 7.75761 6.39703 20.9503
H 9.17885 6.72358 21.3569
Ow 17.2664 19.9485 18.1131
H 16.3263 19.8286 18.2479
H 17.6118 20.1372 18.9856
Ow 17.7783 11.5477 3.40646
H 17.2862 10.883 2.92453
H 18.0896 11.0947 4.19011
Ow 2.26356 20.7919 24.2399
H 2.79105 20.567 25.0064
H 2.90451 20.9841 23.5555
Ow 16.155 7.79008 11.3063
H 15.405 7.35957 11.7166
H 15.7708 8.49035 10.7789
Ow 17.1671 25.9121 8.81421
H 17.7465 0.85298 8.30874
H 17.4207 0.430049 9.72539
Ow 8.56606 3.38405 21.4982
H 7.66271 3.14323 21.2928
H 8.84676 2.73484 22.1432
Ow 16.5429 9.04431 16.4079
H 16.8171 9.91574 16.6937
H 15.6456 9.16488 16.0973
Ow 22.6919 7.5572 10.3775
H 22.5035 8.4537 10.1
H 22.1087 7.40884 11.1218
Ow 17.3045 0.899981 17.4026
H 16.9342 0.547894 16.5933
H 17.4761 25.7583 17.9433
Ow 16.1807 22.0472 3.70861
H 15.4188 22.2982 4.23076
H 16.9253 22.4345 4.16899
Ow 2.50396 19.0882 7.91347
H 1.84752 19.0972 8.61006
H 2.11495 19.6084 7.2104
Ow 17.6716 10.8539 13.0002
H 17.5354 11.7695 13.244
H 18.2782 10.8902 12.2607
Ow 25.5194 16.6727 2.6226
H 24.9314 15.9186 2.57852
H 0.548477 16.426 3.27209
Ow 22.1122 3.5107 24.6037
H 22.625 2.72243 24.7822
H 21.681 3.33233 23.768
Ow 24.8088 4.91945 18.2935
H 23.8603 5.04688 18.3144
H 25.1069 5.45594 17.559
Ow 14.1571 7.49524 19.9424
H 13.3142 7.91193 19.7635
H 14.0103 6.56757 19.7578
Ow 0.744622 18.3759 9.856
H 0.64883 18.9195 10.638
H 25.5054 18.379 9.45376
Ow 15.9403 4.60255 10.4741
H 16.4417 5.07232 9.80766
H 15.1616 5.14154 10.6128
Ow 9.08276 10.8258 23.9578
H 8.13511 10.707 23.894
H 9.37488 10.9164 23.0508
Ow 5.14552 9.39292 18.6046
H 5.0993 10.3293 18.4115
H 5.90032 9.08186 18.1048
Ow 13.2477 20.5693 16.4769
H 13.1994 21.4907 16.222
H 13.3633 20.0979 15.6518
Ow 9.61391 14.8789 10.1209
H 8.83228 14.5427 9.68237
H 9.51651 14.6008 11.0316
Ow 17.4652 17.4072 11.9628
H 17.2883 18.3442 12.046
H 17.8389 17.1575 12.8079
Ow 13.9951 0.475961 24.4094
H 13.3698 25.4458 24.1089
H 13.8558 1.2221 23.8262
Ow 1.37155 15.6395 18.4725
H 0.440276 15.4204 18.4413
H 1.44959 16.2521 19.2038
Ow 0.925351 12.1037 13.7591
H 25.713 12.2291 13.3207
H 1.48529 11.7038 13.0937
Ow 1.71049 22.0468 10.499
H 2.33635 22.1455 9.78151
H 2.09349 21.3729 11.0606
Ow 4.52755 5.7607 21.5144
H 4.9483 5.30221 20.787
H 5.11601 5.62395 22.2568
Ow 1.38527 1.49993 11.1245
H 0.636222 1.19757 11.638
H 2.07296 1.65559 11.7718
Ow 22.607 5.00266 9.06912
H 22.9685 5.01557 8.18288
H 22.7826 5.87867 9.41268
Ow 20.9611 21.2652 8.91018
H 21.405 20.4657 9.19287
H 21.4462 21.9723 9.3356
Ow 9.61998 24.6017 10.6532
H 8.72177 24.4363 10.9397
H 9.52851 25.1931 9.9061
Ow 6.65552 7.9831 25.2226
H 5.76726 7.77129 24.9356
H 7.18872 7.25085 24.9132
Ow 11.0571 15.8972 3.74319
H 11.0321 16.616 4.37479
H 11.8698 16.0336 3.25631
Ow 4.34136 25.4233 10.1016
H 4.4197 24.5564 9.70344
H 4.47654 26.0335 9.37651
Ow 3.92772 1.46839 19.0868
H 3.51094 1.40534 19.9462
H 4.02537 2.40855 18.9358
Ow 10.0039 16.4734 23.2161
H 9.76425 15.7893 23.8413
H 10.9476 16.5841 23.3315
Ow 3.7952 14.3319 18.467
H 2.94184 14.765 18.4884
H 4.19142 14.6229 17.6457
Ow 19.5035 7.40765 7.29006
H 20.4509 7.47687 7.17283
H 19.2055 8.31322 7.37598
Ow 5.56523 2.15223 25.7924
H 6.06958 1.59487 25.1997
H 5.84961 3.04234 25.5849
Ow 15.981 22.3991 23.0317
H 15.3157 21.8017 23.3734
H 16.4989 21.8634 22.4309
Ow 10.4343 11.7446 7.94413
H 10.8525 11.4426 7.13781
H 11.111 12.2548 8.38899
Ow 23.0537 4.01244 14.3251
H 23.7309 3.34464 14.433
H 23.5099 4.75519 13.9297
Ow 14.3363 17.7379 10.6525
H 14.7118 18.4994 11.0944
H 14.1758 18.0351 9.75683
Ow 4.47607 4.79038 10.4575
H 4.53615 5.27986 9.6371
H 4.72907 3.89743 10.2233
Ow 21.5744 18.8913 5.54443
H 20.7178 18.7035 5.16079
H 21.5757 19.8393 5.67639
Ow 12.4835 18.4306 20.8713
H 12.7071 19.3592 20.8092
H 12.5872 18.2202 21.7993
Ow 9.65583 21.5459 25.0337
H 10.1658 22.0722 25.6495
H 9.47829 22.1373 24.3023
Ow 13.3228 6.74039 1.62219
H 13.2063 5.81565 1.40421
H 14.2257 6.80148 1.9342
Ow 11.8228 9.57564 13.3381
H 12.1547 10.2183 13.9651
H 11.6786 8.78515 13.8583
Ow 2.59162 6.83748 2.03761
H 3.29051 7.47566 1.89445
H 1.8601 7.16064 1.5116
Ow 23.4763 23.3701 6.06152
H 23.4813 24.2988 6.29349
H 24.3077 23.0346 6.39669
Ow 0.590442 23.3129 13.779
H 25.8809 24.2017 13.6717
H 25.9187 22.8455 12.9999
Ow 18.2583 23.6944 14.1759
H 18.1067 22.8687 14.6358
H 17.8053 23.5896 13.3391
Ow 9.28874 0.642636 8.1712
H 9.35845 1.4686 7.6925
H 8.88316 25.6677 7.54941
Ow 21.7565 10.9861 5.02784
H 21.711 10.1225 5.43824
H 21.3256 11.571 5.65108
Ow 2.07202 5.67442 19.4089
H 2.56214 5.13332 18.7898
H 2.74335 6.07561 19.9608
Ow 12.8731 5.48088 16.7357
H 12.7421 6.28789 16.2379
H 12.1259 4.93039 16.5014
Ow 4.02834 5.04981 7.47489
H 4.51188 5.3106 6.69104
H 4.40785 4.20635 7.72143
Ow 0.846066 0.694892 19.0461
H 26.0079 25.5093 18.8627
H 1.33448 0.877259 18.2433
Ow 21.8227 14.7762 25.3532
H 22.0636 14.9249 0.638282
H 22.634 14.9176 24.8653
Ow 25.8096 15.6313 25.6136
H 25.7213 16.3409 0.620648
H 0.885051 15.0843 25.9604
Ow 25.0484 8.5735 3.36937
H 25.432 8.22171 2.56607
H 24.5423 7.84647 3.73202
Ow 12.0184 10.5119 5.02378
H 11.9982 9.90506 4.28381
H 12.7454 10.2054 5.56571
Ow 11.9074 1.41548 9.20778
H 11.2749 0.749101 8.9391
H 11.8649 2.0784 8.51861
Ow 8.80272 16.4133 2.26869
H 8.06075 15.941 2.64632
H 9.53919 16.2012 2.84215
Ow 17.3665 19.7866 14.5194
H 16.8258 19.8769 13.7347
H 18.1911 19.4189 14.2015
Ow 23.094 4.93212 6.38247
H 22.7321 5.81739 6.34384
H 22.7961 4.51552 5.57382
Ow 8.06076 25.6588 2.69442
H 7.26355 0.548309 2.80174
H 8.53824 0.466293 1.98913
Ow 20.0322 23.113 21.4337
H 19.8221 23.6856 20.696
H 19.8177 22.2332 21.1234
Ow 7.12748 7.28839 7.83034
H 7.91225 6.75062 7.93607
H 6.6481 6.87485 7.11243
Ow 21.4958 4.02795 11.9856
H 21.9547 4.15988 12.8152
H 20.5788 3.91203 12.2344
Ow 1.59752 25.3995 8.79084
H 2.42107 24.9366 8.94488
H 1.58207 0.459786 9.45449
Ow 15.4754 10.235 21.4123
H 14.6342 10.3345 21.8582
H 15.4531 10.8851 20.7101
Ow 12.4794 13.2263 4.0569
H 12.4856 12.2717 4.12769
H 13.009 13.4129 3.28172
Ow 2.86536 4.17401 1.27553
H 3.13763 3.98235 26.0074
H 2.78976 5.12776 1.30487
Ow 7.93434 17.3636 19.0636
H 7.50285 16.5362 18.8502
H 8.1814 17.7312 18.2151
Ow 24.6688 21.5857 11.6561
H 25.3899 21.0919 12.0464
H 23.9396 21.467 12.2647
Ow 16.1071 17.2133 1.77337
H 16.5652 17.5931 1.02354
H 16.8059 16.909 2.35242
Ow 7.33595 20.4175 9.86826
H 6.59962 20.3634 10.4775
H 7.13567 21.1734 9.31627
Ow 3.20153 23.0137 20.1616
H 2.61972 23.4781 20.7633
H 3.45129 22.2196 20.6342
Ow 15.3122 4.49652 25.1992
H 14.4805 4.81082 25.5537
H 15.1264 4.31249 24.2785
Ow 21.8962 5.30999 18.9098
H 21.3867 6.1191 18.9545
H 21.7561 4.89092 19.7589
Ow 6.80341 15.2411 24.8679
H 6.05163 14.7241 25.1573
H 6.64865 16.1134 25.2305
Ow 20.4969 24.4383 7.47271
H 21.1741 25.1148 7.4763
H 20.0706 24.5209 8.32574
Ow 9.79574 10.972 1.05687
H 9.55796 10.9395 25.7596
H 10.0666 11.8783 1.20346
Ow 12.6412 4.36951 0.701963
H 12.1048 4.25844 25.5463
H 12.841 3.47701 0.984371
Ow 20.2761 19.6519 25.5993
H 20.8151 18.9502 25.9645
H 19.4844 19.2108 25.2913
Ow 14.6279 1.08928 20.4866
H 15.5748 0.961523 20.5446
H 14.4692 1.91694 20.9404
Ow 22.7996 11.0411 20.1823
H 22.5647 10.524 19.4118
H 22.0417 11.6061 20.3324
Ow 3.68332 7.77162 24.2736
H 3.66079 8.04824 23.3575
H 3.33416 8.51928 24.7587
Ow 8.80058 14.6024 16.0965
H 8.72041 13.6792 16.3365
H 8.68438 14.6144 15.1465
Ow 25.1776 8.97614 10.7596
H 24.3642 8.5707 11.0601
H 25.677 9.1346 11.5607
Ow 6.4471 10.1476 23.4928
H 6.5225 9.36325 24.0363
H 6.48588 9.82126 22.5938
Ow 11.9303 25.2986 19.5734
H 12.1779 25.6599 18.7223
H 11.2035 24.7063 19.3805
Ow 17.7619 11.5954 16.9279
H 17.9974 11.988 17.7685
H 18.5716 11.617 16.4178
Ow 23.5298 2.62303 10.6722
H 23.7814 1.87666 11.2161
H 24.3608 3.00997 10.3965
Ow 17.458 16.4167 4.53021
H 17.5719 15.6725 3.9391
H 16.5113 16.4799 4.65682
Ow 25.3251 12.1467 19.992
H 24.4835 11.6954 19.9278
H 25.8157 11.8498 19.2256
Ow 2.98687 11.0779 21.1187
H 2.7245 11.0234 20.1997
H 3.42117 10.2432 21.2942
Ow 1.09674 19.8105 12.529
H 1.80268 19.1697 12.444
H 0.883504 19.8103 13.4622
Ow 1.67705 15.4677 5.76755
H 2.31675 15.1775 6.4178
H 2.19358 15.948 5.12044
Ow 13.843 14.9827 20.8522
H 13.4131 15.064 20.0009
H 14.5088 15.6704 20.8516
Ow 18.7169 3.89997 11.8174
H 18.9223 4.49923 11.0998
H 18.7754 3.02827 11.4263
Ow 2.91982 24.3084 14.5704
H 2.69933 24.8321 15.3407
H 2.10919 23.8481 14.3531
Ow 18.9237 5.53067 20.8966
H 19.1749 5.91452 20.0565
H 19.6153 4.89693 21.0872
Ow 11.9578 8.71363 19.115
H 11.5169 8.54995 18.2813
H 11.5538 9.51544 19.4468
Ow 7.1919 14.097 8.76864
H 6.31571 14.0062 9.14317
H 7.31378 13.3032 8.2479
Ow 18.982 13.7586 0.684846
H 18.4011 13.1042 25.9262
H 18.4175 14.2639 1.26991
Ow 15.4372 16.9577 23.5323
H 16.0016 17.4489 24.1294
H 15.3254 16.1058 23.9542
Ow 15.3835 2.74021 7.63749
H 14.948 3.59258 7.63676
H 16.3139 2.94606 7.54726
Ow 7.29765 3.87408 14.8544
H 6.436 4.22425 15.0806
H 7.47065 4.21149 13.9755
Ow 4.89783 7.81746 9.69361
H 3.97427 8.05686 9.61637
H 5.04953 7.74727 10.6361
Ow 3.2707 2.2183 24.4515
H 4.10001 2.10447 24.9157
H 2.65738 1.64543 24.9118
Ow 6.78465 0.838291 23.6839
H 6.79175 25.5489 23.4151
H 7.61438 1.18936 23.3606
Ow 15.5794 0.872716 14.9611
H 14.9682 1.34413 14.395
H 15.136 25.677 15.1586
Ow 8.91335 19.02 23.7613
H 8.92499 19.3729 22.8716
H 9.26998 18.1361 23.6736
Ow 20.9021 21.2945 15.5024
H 20.8813 20.5594 16.1152
H 20.3657 21.0064 14.7638
Ow 8.59067 2.12046 18.9824
H 8.42964 2.16101 18.0397
H 7.73142 1.94339 19.3653
Ow 14.1959 23.7629 21.5301
H 13.8024 24.0428 22.3566
H 14.9832 23.2841 21.7891
Ow 9.22487 4.05584 2.12712
H 9.25151 3.87711 3.06711
H 9.7396 3.35097 1.73413
Ow 3.21243 22.8561 17.1919
H 3.37499 22.8715 18.1351
H 2.26713 22.9817 17.1092
Ow 9.14814 24.4853 25.3776
H 9.41295 25.0107 24.6226
H 9.72001 24.7789 0.457529
Ow 21.7659 15.9232 14.5667
H 21.2866 15.2591 15.0622
H 21.0854 16.4946 14.2107
Ow 22.9875 15.1211 12.1434
H 22.6172 15.3856 12.9856
H 22.2603 14.7029 11.6823
Ow 11.7832 16.4387 11.515
H 12.489 17.0542 11.3167
H 11.3811 16.7835 12.3123
Ow 13.656 23.0558 8.3841
H 13.9293 23.9728 8.41015
H 13.0797 22.9555 9.14174
Ow 25.8654 25.7843 22.6276
H 25.9103 24.9068 22.2479
H 0.715949 25.7135 23.4528
Ow 4.82915 11.7805 17.5028
H 4.9239 12.7 17.7512
H 5.33265 11.6976 16.693
Ow 14.3383 24.1207 18.7486
H 15.1884 23.7022 18.8841
H 14.1102 23.913 17.8425
Ow 11.3773 12.098 18.7222
H 10.6565 11.8583 18.1398
H 11.0955 11.8015 19.5876
Ow 24.7647 24.0755 18.5144
H 25.0369 23.2155 18.1944
H 24.3726 23.9002 19.3699
Ow 24.4907 24.0419 3.17654
H 25.4228 23.8348 3.24475
H 24.0865 23.5718 3.90578
Ow 16.795 25.7731 25.3085
H 17.066 0.787922 24.6544
H 17.2826 24.9812 25.0819
Ow 9.52397 6.29253 24.1565
H 9.94459 5.43836 24.0579
H 8.96485 6.37527 23.384
Ow 22.1361 20.5243 19.5371
H 21.3049 20.1162 19.2948
H 22.5783 19.8674 20.0749
Ow 17.1095 23.0786 19.2353
H 17.3333 22.3878 19.8589
H 17.7681 23.7574 19.3824
Ow 5.85461 17.5305 0.480459
H 6.57005 17.956 0.95309
H 5.12235 18.1429 0.551673
Ow 6.83725 25.9422 12.5125
H 6.11185 0.752806 12.9558
H 6.83007 0.672578 11.6255
Ow 24.6003 18.9456 5.79291
H 25.2438 19.6541 5.78432
H 24.3823 18.8306 6.71784
Ow 12.9526 0.876289 16.9396
H 13.5242 1.63078 17.0818
H 13.5019 25.872 16.4779
Ow 17.2033 7.465 13.7777
H 17.4599 6.56881 13.5604
H 16.8487 7.81766 12.9615
Ow 12.6831 17.1368 23.2653
H 12.7876 17.8291 23.9181
H 13.5314 16.6937 23.2476
Ow 25.3929 7.5488 8.21709
H 0.465605 7.22606 7.65203
H 24.8538 8.09294 7.64308
Ow 14.5377 20.0904 18.7546
H 14.0005 20.075 17.9625
H 14.2566 20.8782 19.22
Ow 2.89774 16.1393 3.2012
H 2.49034 15.8608 2.38103
H 2.72153 17.0789 3.24974
Ow 11.826 15.878 8.6143
H 12.6169 16.391 8.44838
H 12.1156 14.9671 8.56323
Ow 8.57379 23.9736 6.61891
H 8.04567 23.5577 7.30032
H 8.06182 23.8633 5.81768
Ow 12.039 23.2566 10.8106
H 12.6468 23.7176 11.3886
H 11.2178 23.7422 10.8893
Ow 9.70589 11.6054 12.1824
H 9.6385 12.5533 12.2972
H 8.8519 11.2694 12.4545
Ow 10.5231 17.8049 13.6904
H 11.3985 18.1885 13.7438
H 10.3758 17.4219 14.5552
Ow 6.82792 4.76493 25.9036
H 6.45181 5.38066 0.903268
H 7.56828 4.37192 0.736456
Ow 2.13832 14.5079 14.2243
H 1.50569 14.8343 14.8642
H 1.92843 13.5786 14.1318
Ow 23.2741 26.0092 17.1828