1608
 Atoms. Timestep: 0
Ow 24.8839 14.1906 13.7316
H 25.0576 13.5959 13.0019
H 23.9878 14.494 13.5859
Ow 17.6378 2.7916 5.01808
H 18.5503 2.97792 4.79705
H 17.1936 2.73074 4.17236
Ow 14.5889 25.55 14.7533
H 14.6168 25.9751 13.8961
H 14.0405 24.7768 14.6199
Ow 8.98932 11.3916 16.8047
H 8.93788 11.2746 15.8561
H 9.2617 10.5365 17.1376
Ow 3.89845 16.9723 15.4201
H 3.94162 16.1781 14.8874
H 2.96372 17.1047 15.5781
Ow 5.02276 20.4407 9.30959
H 4.95693 19.9477 8.49178
H 4.98146 19.7744 9.99553
Ow 25.358 1.58561 14.8381
H 25.6693 1.42151 13.9479
H 25.4295 2.53399 14.9463
Ow 23.5479 1.95712 1.49604
H 24.1757 1.85694 2.21164
H 23.7435 2.817 1.12379
Ow 7.34955 21.5398 22.7305
H 7.35606 22.4939 22.8068
H 6.61661 21.2602 23.2791
Ow 17.4152 1.56666 10.9445
H 17.291 0.618263 10.9076
H 17.1232 1.81293 11.8222
Ow 17.7262 23.8155 16.3622
H 18.3754 23.2111 16.7221
H 17.9526 23.8866 15.4348
Ow 1.15031 6.44817 18.46
H 1.72709 5.68528 18.4208
H 1.73622 7.1829 18.642
Ow 13.7808 8.07368 7.1398
H 13.6797 8.80934 6.53579
H 14.1074 8.46965 7.94775
Ow 5.14442 4.51964 4.53878
H 5.25118 4.97727 5.37268
H 5.43229 5.15136 3.87977
Ow 6.19472 22.9099 17.4732
H 6.04077 22.3595 16.7053
H 5.34054 23.296 17.6668
Ow 5.70186 5.03533 23.8929
H 5.76846 4.1506 24.2522
H 4.96276 5.42796 24.3575
Ow 4.01196 4.44278 1.35647
H 3.17028 4.08547 1.63955
H 3.78172 5.17871 0.789344
Ow 6.75164 8.18804 16.4897
H 6.36476 9.04423 16.6728
H 7.32373 8.3391 15.7373
Ow 1.79064 15.0071 3.62014
H 1.95358 14.7556 4.52922
H 1.16542 14.357 3.29965
Ow 16.1259 3.18557 17.7312
H 16.5876 3.64494 17.0298
H 15.2409 3.5499 17.7147
Ow 10.2415 4.39222 10.0161
H 10.9204 5.02536 10.2497
H 10.7021 3.5547 9.96434
Ow 24.7588 5.75392 20.3898
H 25.5412 5.26629 20.6472
H 24.7127 6.47965 21.0123
Ow 14.2279 10.044 23.4076
H 13.4476 9.51761 23.2337
H 14.2275 10.1675 24.3568
Ow 22.2131 15.8713 18.8263
H 22.9129 16.1053 19.4361
H 21.9909 14.9678 19.0512
Ow 8.67114 10.4287 2.19035
H 8.90148 9.96775 2.99702
H 9.50931 10.7251 1.8356
Ow 4.30122 25.7062 14.8817
H 4.53323 25.1847 14.1133
H 5.09471 25.711 15.4171
Ow 6.1627 9.20474 21.7162
H 7.10193 9.15887 21.5374
H 6.08487 8.99303 22.6464
Ow 9.64666 3.77973 24.3254
H 9.28394 4.64039 24.1158
H 9.13138 3.47785 25.0734
Ow 10.4209 3.12082 21.88
H 10.129 3.24788 22.7827
H 9.85939 2.42308 21.5422
Ow 16.6459 9.61741 5.06289
H 16.7577 9.73726 4.11983
H 17.2675 8.92661 5.29237
Ow 4.80315 14.6914 18.6135
H 4.57751 14.4807 19.5196
H 4.28468 14.0812 18.089
Ow 13.1695 16.4016 9.66232
H 13.1553 16.8913 8.84001
H 13.8844 16.7944 10.1632
Ow 15.5334 22.3011 15.4678
H 16.0436 21.949 14.7384
H 16.1522 22.8485 15.9513
Ow 1.37862 15.076 10.6328
H 0.905277 15.8546 10.926
H 0.824353 14.343 10.9008
Ow 25.3795 9.50868 10.28
H 25.726 10.3867 10.439
H 0.525138 8.97215 10.1105
Ow 19.9542 12.914 11.239
H 19.9904 13.8684 11.1762
H 19.6896 12.7428 12.1428
Ow 14.002 25.6047 23.0937
H 14.5834 25.3546 22.3756
H 14.2546 25.0316 23.8177
Ow 18.6926 19.3214 14.7974
H 18.7383 19.9657 15.5037
H 17.9748 19.625 14.2416
Ow 18.0137 9.8055 10.424
H 18.097 10.021 11.3529
H 17.0731 9.69171 10.2875
Ow 18.8813 4.99852 1.66262
H 19.3713 4.44155 1.05776
H 19.5462 5.35846 2.24965
Ow 6.66483 16.3444 6.83721
H 7.2598 15.6008 6.93411
H 6.58393 16.4653 5.89113
Ow 2.71447 11.1674 5.00997
H 2.07422 11.3416 4.32006
H 2.53982 10.265 5.27717
Ow 4.55068 8.38052 3.09447
H 3.94211 8.63693 2.40156
H 5.07309 7.67812 2.70724
Ow 13.1924 23.3153 14.0153
H 12.2902 23.0054 13.9354
H 13.633 22.9744 13.237
Ow 15.1626 14.246 24.8087
H 15.099 13.6285 25.5374
H 14.5749 14.9622 25.0491
Ow 8.61662 5.8482 1.22247
H 8.35848 4.94353 1.39906
H 9.3915 5.98729 1.76695
Ow 3.88222 18.0585 23.1358
H 4.21848 18.9542 23.1057
H 3.70924 17.8363 22.221
Ow 10.2475 18.3535 4.18209
H 9.85648 17.5759 3.78368
H 9.65125 18.5837 4.89465
Ow 24.4089 4.29636 25.4566
H 24.3233 4.98344 0.488803
H 25.0441 4.64361 24.8303
Ow 16.2248 13.278 13.8882
H 15.8417 13.6599 14.6779
H 16.256 12.3382 14.067
Ow 8.7335 17.2898 0.881932
H 8.27621 16.695 25.9162
H 9.0654 16.724 1.57907
Ow 23.8645 20.1146 14.6608
H 23.0446 20.4054 14.2614
H 24.1613 20.8662 15.1739
Ow 4.11963 7.18137 15.9247
H 4.16943 6.22658 15.9708
H 4.98105 7.48092 16.2154
Ow 4.36946 1.54563 10.9801
H 5.13238 1.16244 10.5473
H 3.74233 0.825251 11.0432
Ow 15.7643 4.98891 11.8103
H 15.3092 5.6309 11.2653
H 16.4445 5.49267 12.2573
Ow 13.2713 24.8306 8.87793
H 13.1578 25.4358 9.61076
H 12.3803 24.5824 8.63141
Ow 23.0875 17.1959 25.6446
H 23.414 17.994 25.2289
H 22.2507 17.4523 0.403507
Ow 23.4557 6.45458 9.31049
H 24.3941 6.53577 9.13999
H 23.0998 6.06328 8.51271
Ow 5.46243 20.9512 0.601869
H 5.17772 21.1923 25.3491
H 4.6986 20.5274 0.993253
Ow 6.47199 9.14575 7.54492
H 5.791 8.49661 7.72128
H 6.96344 8.78374 6.80759
Ow 8.33686 8.71237 25.4434
H 7.44062 8.53092 25.1605
H 8.2397 9.10696 0.681381
Ow 10.7532 25.2323 4.98179
H 10.2974 24.6011 5.53859
H 10.4296 0.456638 5.27135
Ow 15.8446 14.1456 5.61733
H 16.2854 13.3481 5.91033
H 14.9155 13.9781 5.77529
Ow 3.21909 22.7498 8.81891
H 2.66436 21.9812 8.68591
H 2.65834 23.4923 8.59409
Ow 19.2242 22.6336 19.8733
H 19.4085 22.0595 19.1299
H 20.0655 22.7242 20.3209
Ow 19.5395 5.78015 18.7066
H 20.1473 6.12979 18.0549
H 18.684 6.11891 18.443
Ow 17.1781 16.2965 13.647
H 17.4031 16.6802 14.4946
H 18.0223 16.1179 13.2327
Ow 14.7871 6.58825 9.92613
H 14.921 7.53603 9.93265
H 15.5198 6.24597 9.41397
Ow 2.12855 2.62455 1.96729
H 1.516 2.81829 2.67686
H 2.87728 2.2158 2.40152
Ow 16.0056 17.0015 21.1772
H 16.0732 17.9004 20.8552
H 15.9522 16.4663 20.3854
Ow 13.9249 19.7394 17.5753
H 13.4733 20.1595 18.3073
H 14.8431 19.7107 17.8445
Ow 17.2296 15.535 23.0958
H 16.5045 15.012 23.4379
H 16.8382 16.0602 22.3978
Ow 16.9576 19.7559 21.0096
H 17.8734 19.6227 21.2542
H 16.7287 20.6043 21.3892
Ow 18.8703 17.5423 24.292
H 18.053 17.9896 24.5119
H 19.1814 17.9853 23.5026
Ow 15.4111 12.295 8.54291
H 16.1843 12.6967 8.93927
H 15.401 11.4022 8.88775
Ow 23.4287 24.1314 1.89898
H 23.7734 24.8038 2.48665
H 23.919 23.3409 2.12493
Ow 9.55385 10.7353 23.877
H 9.78287 10.1339 23.1685
H 8.86275 10.2836 24.3613
Ow 14.3504 24.6443 3.26735
H 15.2964 24.7182 3.39283
H 14.0074 24.4473 4.13901
Ow 2.57276 11.3993 12.3401
H 1.7463 11.809 12.0845
H 2.82495 11.8499 13.146
Ow 12.3275 16.0199 12.8182
H 13.2423 16.2611 12.6726
H 12.2952 15.7427 13.7338
Ow 19.9008 15.4044 2.45507
H 19.8622 15.0511 1.56626
H 19.1481 15.0156 2.90073
Ow 23.6841 15.4552 8.86887
H 24.213 14.7763 8.44992
H 23.7679 16.2147 8.29226
Ow 1.48607 25.06 0.494385
H 2.37188 25.3596 0.698835
H 1.4371 24.1812 0.870738
Ow 8.75049 18.3697 6.81411
H 9.37539 18.125 7.49661
H 8.05008 17.7213 6.88627
Ow 14.4073 6.59871 17.8534
H 15.3062 6.85955 18.054
H 14.3011 6.7989 16.9235
Ow 6.70224 16.8799 4.07054
H 7.4409 16.3429 3.78392
H 5.92774 16.3792 3.81426
Ow 12.4505 12.2728 24.202
H 13.3445 11.9978 23.9987
H 12.356 13.1212 23.7689
Ow 7.03903 10.6448 9.59371
H 7.77007 10.4525 10.1809
H 7.13949 10.0222 8.87363
Ow 6.384 21.232 13.75
H 6.09414 21.7323 12.9871
H 7.20829 21.6443 14.0083
Ow 2.54831 12.7828 23.743
H 2.68046 13.1536 22.8705
H 1.93129 12.0637 23.6072
Ow 18.6991 20.9481 23.6232
H 18.9455 20.2052 23.0722
H 19.2671 20.8767 24.3904
Ow 9.61084 19.9503 23.5875
H 9.9609 19.0596 23.6078
H 8.84011 19.9182 24.1542
Ow 11.6603 10.437 12.3119
H 11.7846 10.5023 13.2588
H 12.5473 10.4455 11.9523
Ow 3.1524 0.462758 21.5822
H 3.61365 0.488401 20.7439
H 3.36097 1.30003 21.9966
Ow 23.3968 0.649409 12.1373
H 22.54 1.04008 12.3091
H 23.2032 25.3733 11.8921
Ow 5.69484 11.8133 21.2925
H 5.7751 10.8599 21.2646
H 4.82452 11.9915 20.9361
Ow 7.73651 13.3659 10.2397
H 6.9596 13.8836 10.4511
H 7.40126 12.6254 9.73428
Ow 6.18403 23.1803 8.82097
H 5.98089 24.092 9.02998
H 6.03346 23.1109 7.87824
Ow 0.617021 5.44273 8.6952
H 25.7825 5.07302 7.94358
H 1.10711 6.18193 8.33515
Ow 16.0584 8.03087 23.7097
H 15.2984 8.56526 23.4796
H 16.8122 8.57006 23.4703
Ow 24.3042 20.1288 8.07148
H 23.6347 20.4261 7.45543
H 24.512 19.2382 7.78881
Ow 3.59234 24.113 17.5829
H 3.09933 23.5237 18.1537
H 3.80825 24.8612 18.1394
Ow 6.61639 16.9328 22.014
H 6.5696 16.0673 22.4199
H 5.92655 17.4376 22.4448
Ow 16.4771 9.34384 16.0905
H 16.7116 8.73647 16.7922
H 17.2215 9.31514 15.4894
Ow 22.3252 23.6959 4.95372
H 21.4748 23.5527 4.53829
H 22.1311 24.2411 5.71613
Ow 13.6431 16.7334 25.9862
H 13.9371 16.8951 1.25396
H 12.8435 16.2168 0.45656
Ow 6.9322 24.2873 19.9291
H 7.57201 24.8556 20.358
H 6.1343 24.8143 19.8856
Ow 24.451 6.56935 5.71923
H 24.5831 5.62185 5.75085
H 23.5418 6.69408 5.99129
Ow 12.9601 22.3662 1.6491
H 13.8651 22.0702 1.55073
H 12.4619 21.8217 1.03951
Ow 24.7045 18.4749 3.8335
H 24.7878 19.3639 3.48877
H 25.5871 18.1097 3.77172
Ow 5.18179 6.03246 10.5097
H 5.98994 5.70654 10.9058
H 5.0212 5.44328 9.77258
Ow 11.071 15.4972 5.71665
H 10.4002 15.5513 5.03591
H 11.5827 14.7212 5.48826
Ow 7.81352 21.4676 3.95824
H 7.27365 20.7137 3.72099
H 7.48491 22.1801 3.40997
Ow 2.17477 8.87136 13.8128
H 1.35272 8.56561 13.4294
H 2.30376 9.74345 13.4399
Ow 9.49208 17.8749 18.6898
H 9.19405 18.3364 19.4736
H 8.70542 17.4502 18.3477
Ow 19.9601 14.7118 23.393
H 20.9164 14.7095 23.3507
H 19.7231 13.7923 23.5139
Ow 20.6096 5.65784 21.3111
H 20.25 5.84547 20.4441
H 20.7642 6.51942 21.6984
Ow 15.762 3.17048 8.78589
H 16.1342 2.74972 9.56089
H 15.5736 4.06613 9.0662
Ow 10.1547 21.0979 2.34617
H 9.3309 21.082 2.83338
H 9.91208 21.4106 1.47464
Ow 25.999 10.6844 0.960412
H 25.8502 11.554 0.589123
H 25.1566 10.4396 1.34339
Ow 17.5044 14.665 3.37619
H 17.0588 15.3148 2.83262
H 16.9121 14.523 4.1146
Ow 10.3151 11.859 9.30812
H 10.3829 12.0798 8.37919
H 10.8353 11.0612 9.40381
Ow 16.0587 6.4742 21.5776
H 16.2494 7.02418 22.3375
H 16.5335 6.88793 20.8567
Ow 7.76704 4.168 11.5917
H 8.61468 4.36188 11.1916
H 7.93983 3.42734 12.173
Ow 18.6597 1.06362 16.6012
H 19.3765 0.797069 16.0255
H 19.059 1.68591 17.2091
Ow 1.22653 24.695 8.58083
H 1.67278 25.3592 8.05564
H 1.54553 24.8392 9.47171
Ow 3.46343 17.4938 20.31
H 3.39468 18.3054 19.8072
H 3.94967 16.8986 19.7395
Ow 9.73511 15.8429 20.5888
H 9.56321 16.5468 19.9633
H 10.4929 15.382 20.229
Ow 11.8815 23.1548 23.3793
H 12.1687 24.0558 23.2312
H 12.6566 22.6231 23.1984
Ow 20.9744 0.986305 1.75437
H 20.5361 1.69017 1.2761
H 21.8999 1.23033 1.74574
Ow 21.1483 6.03541 3.20581
H 21.0013 5.1967 3.64307
H 21.28 6.65869 3.92024
Ow 2.56476 5.51158 4.37349
H 3.43454 5.11199 4.37939
H 2.6878 6.36055 4.79815
Ow 2.30741 5.95001 10.9733
H 2.22652 6.65359 10.3294
H 3.24786 5.88277 11.1385
Ow 5.9201 4.95514 21.2371
H 5.81674 5.13252 22.1721
H 6.28872 4.07256 21.1996
Ow 4.91775 1.4953 6.96705
H 5.65851 1.15965 7.47188
H 4.88041 2.4264 7.18587
Ow 10.3815 1.30739 0.967031
H 10.5955 1.97413 1.61962
H 10.6687 0.484123 1.36191
Ow 13.1899 7.39314 2.17778
H 13.3912 8.11848 1.58651
H 13.6583 6.64486 1.80781
Ow 7.80756 3.17695 1.05912
H 7.9374 2.89159 1.96352
H 6.85923 3.14847 0.932285
Ow 4.00151 12.8875 1.84969
H 3.04856 12.9497 1.91485
H 4.31223 13.7769 2.01901
Ow 1.359 17.7381 12.169
H 1.56405 18.2803 12.9307
H 2.21045 17.5406 11.7789
Ow 20.4497 12.0116 2.41126
H 21.0175 11.2553 2.26351
H 21.0524 12.7319 2.59598
Ow 20.1007 25.9087 14.363
H 19.8652 25.6409 13.4747
H 20.4602 1.16126 14.2606
Ow 1.89672 11.5427 19.9708
H 1.36551 11.0165 19.3731
H 1.79139 11.1183 20.8223
Ow 22.7157 3.87573 20.7648
H 21.9249 4.41361 20.8041
H 23.4102 4.4876 20.5209
Ow 12.1469 9.84235 8.97627
H 13.0475 9.83839 9.30037
H 12.2348 9.85177 8.02317
Ow 14.3757 24.64 25.8807
H 14.8616 23.8844 25.5501
H 15.052 25.2695 0.501991
Ow 11.4216 24.8167 2.26354
H 11.0881 24.9736 3.14695
H 10.9172 24.0676 1.94613
Ow 12.9994 20.5251 15.0591
H 12.1203 20.1471 15.035
H 13.3629 20.234 15.8954
Ow 17.2271 5.96224 9.00152
H 17.6424 6.81624 8.88156
H 17.248 5.56105 8.1327
Ow 14.1231 8.16744 15.1221
H 14.1392 8.10915 14.1668
H 14.9167 8.65339 15.3463
Ow 22.4211 6.41781 24.0223
H 22.3476 5.56492 23.5941
H 22.8548 6.97448 23.3756
Ow 25.5713 16.3362 1.03263
H 24.6453 16.385 0.7954
H 25.907 17.2181 0.871893
Ow 15.6002 18.2042 8.60041
H 15.8729 17.6294 7.88527
H 16.2652 18.0776 9.27707
Ow 17.67 20.9013 2.42628
H 17.5626 20.0577 2.86576
H 18.4575 20.7953 1.89259
Ow 7.45568 2.82888 3.75785
H 6.80463 3.46019 4.06416
H 8.08171 2.76084 4.47875
Ow 10.3561 7.50935 15.0569
H 11.0468 7.39217 14.4047
H 9.6708 7.99364 14.5963
Ow 5.77948 15.2716 10.9436
H 6.22847 15.6358 11.7064
H 5.23179 15.988 10.6227
Ow 10.4456 7.32807 2.84208
H 11.3878 7.43289 2.70962
H 10.254 7.84622 3.62378
Ow 25.243 21.9609 16.2339
H 0.430463 21.563 15.931
H 25.2009 22.8005 15.7762
Ow 4.82398 7.91706 13.1606
H 4.84841 8.73617 12.666
H 5.73695 7.75135 13.3957
Ow 24.1828 7.97544 18.4939
H 24.7124 8.70716 18.1771
H 23.5013 8.38537 19.0267
Ow 26.0024 15.5217 23.6551
H 25.3732 15.3915 22.9456
H 0.850953 16.3144 23.4103
Ow 23.6548 10.489 2.32444
H 22.9084 9.9212 2.13261
H 23.3299 11.3749 2.16379
Ow 10.1189 12.6702 12.2767
H 10.9049 12.127 12.218
H 9.5277 12.1762 12.8447
Ow 18.1622 5.90646 12.752
H 18.2574 6.81889 12.4788
H 18.6507 5.84961 13.5732
Ow 4.53803 2.78883 13.5507
H 4.46101 1.91265 13.9283
H 4.89139 2.64181 12.6733
Ow 20.547 24.0868 25.5865
H 20.0762 24.2138 24.7628
H 20.3667 23.1784 25.8283
Ow 7.82105 7.20614 6.09216
H 8.55771 7.78094 5.88439
H 8.22546 6.36495 6.30449
Ow 21.7249 1.00821 21.6593
H 20.8247 1.17954 21.3824
H 21.753 25.6926 21.813
Ow 24.6732 23.1674 8.88262
H 25.4235 23.7383 9.04802
H 24.3185 22.9795 9.75158
Ow 3.9209 11.0407 25.433
H 3.57846 11.5765 24.7176
H 4.15004 11.6706 0.487535
Ow 17.0247 11.9759 16.9646
H 16.8173 11.0682 16.743
H 16.1732 12.409 17.0242
Ow 9.97656 13.7112 14.9648
H 10.0388 13.3212 14.0929
H 10.774 14.2336 15.0515
Ow 25.6149 8.11249 1.81962
H 25.8989 8.28469 2.71737
H 24.9315 7.44806 1.90734
Ow 10.811 0.492643 17.8563
H 11.4064 1.19373 18.1214
H 10.8378 0.504004 16.8995
Ow 18.9246 24.0298 23.3035
H 18.5608 24.9077 23.4183
H 19.5934 24.1339 22.6267
Ow 8.24643 1.4292 17.8004
H 7.90891 1.51041 18.6925
H 9.14408 1.11581 17.9111
Ow 10.0172 17.486 9.16609
H 10.8482 17.8026 9.52024
H 9.34962 17.9776 9.64455
Ow 25.3405 21.708 18.9576
H 24.5223 22.1136 19.2445
H 25.319 21.7736 18.0029
Ow 21.7804 6.62785 6.61609
H 21.1534 5.96874 6.91392
H 21.2519 7.25761 6.12588
Ow 9.82684 13.4253 25.0771
H 9.04019 13.7385 24.6307
H 10.1473 14.1864 25.5611
Ow 18.211 21.1844 9.24088
H 17.6906 21.8975 9.61095
H 18.3018 20.5566 9.95764
Ow 16.8682 10.1632 2.27479
H 16.2001 9.93024 1.63007
H 17.273 10.9569 1.92488
Ow 15.0389 16.9692 12.1528
H 15.8168 16.7294 12.6564
H 14.8347 17.8604 12.4362
Ow 2.85164 8.38115 18.1969
H 2.93909 8.02078 17.3145
H 2.23052 9.1031 18.1009
Ow 9.17583 14.3682 7.37812
H 8.93751 13.7942 6.65011
H 9.95113 14.8374 7.06992
Ow 10.2222 21.482 9.79943
H 9.50986 20.8668 9.62496
H 9.85908 22.0943 10.4393
Ow 19.3631 23.0008 7.09056
H 19.6543 23.9073 7.18931
H 18.4116 23.0622 7.00653
Ow 1.8394 2.03094 25.0223
H 2.0085 2.39643 25.8907
H 1.93438 2.77406 24.4265
Ow 14.0836 19.3924 12.8394
H 14.8682 19.9376 12.7813
H 13.6829 19.6367 13.6737
Ow 5.99603 6.17351 2.46777
H 5.43514 5.5532 2.00211
H 6.64681 6.44221 1.8193
Ow 13.2826 17.2912 19.4227
H 12.8707 16.4397 19.5694
H 13.2853 17.708 20.2844
Ow 6.80862 0.407098 15.7788
H 7.19962 0.62133 16.6259
H 7.16496 25.1745 15.561
Ow 21.5237 8.88997 2.05626
H 20.7953 8.31136 2.28176
H 21.3338 9.17804 1.1634
Ow 17.1503 22.6392 21.6235
H 17.9038 22.5819 21.0361
H 16.6185 23.3488 21.2632
Ow 12.967 10.0901 5.70049
H 12.938 11.0272 5.50742
H 12.1291 9.75365 5.38266
Ow 12.8454 20.6185 20.0242
H 13.3371 20.876 20.8041
H 11.9977 21.0524 20.1209
Ow 8.29698 19.4768 10.0181
H 7.67524 19.961 9.47475
H 7.78114 19.1824 10.7687
Ow 15.5963 25.0784 20.9776
H 16.0377 25.7872 20.5094
H 14.9691 24.7273 20.3454
Ow 23.9413 5.68512 2.21238
H 23.0584 5.59017 2.56957
H 24.4885 5.13863 2.7765
Ow 17.9746 0.975915 23.8664
H 18.7494 1.47009 24.134
H 17.695 1.39119 23.0505
Ow 25.3697 8.18475 12.9233
H 25.1968 8.58281 12.0701
H 24.7217 7.48408 12.9969
Ow 21.7638 12.8021 15.6578
H 21.4883 13.3235 14.9038
H 22.6767 12.5795 15.4749
Ow 24.1806 4.76385 17.7075
H 23.3371 4.31439 17.6562
H 24.506 4.76695 16.8073
Ow 14.067 18.0027 5.0038
H 13.4897 18.7308 4.77401
H 14.9473 18.3231 4.80712
Ow 12.0604 6.41784 10.1856
H 12.9787 6.64682 10.0423
H 11.5797 6.94145 9.5445
Ow 24.8772 3.81058 6.76907
H 24.1103 3.4949 7.24697
H 25.2656 3.02179 6.39066
Ow 12.6603 20.0487 3.71233
H 12.3703 20.6571 4.39207
H 13.1832 20.5856 3.11696
Ow 21.6074 12.9596 18.8128
H 22.5178 12.6654 18.7848
H 21.156 12.2944 19.3324
Ow 3.46903 15.0612 12.7009
H 2.74312 14.9705 12.0836
H 4.25452 14.9444 12.1665
Ow 5.1716 11.411 6.2649
H 4.44007 11.2539 5.66793
H 5.20504 10.6283 6.81485
Ow 16.4231 16.5113 6.49139
H 16.5694 17.0217 5.69491
H 15.9232 15.749 6.19955
Ow 24.074 14.9805 16.6766
H 24.2286 15.8818 16.3936
H 23.1561 14.9683 16.948
Ow 19.5704 20.0711 7.0877
H 19.4839 19.1949 7.46335
H 18.6693 20.366 6.95656
Ow 14.7494 5.15737 5.97934
H 14.638 4.22167 5.8112
H 15.6969 5.27913 6.03993
Ow 18.3323 4.91773 22.9462
H 18.6444 4.21051 23.5107
H 18.8459 4.82837 22.1434
Ow 20.285 1.63013 10.5661
H 21.0423 1.80641 10.0079
H 20.4015 0.723219 10.8493
Ow 13.7927 2.17405 25.0107
H 13.6931 2.88341 25.6456
H 14.6349 1.77418 25.2277
Ow 22.2972 0.440851 18.8488
H 21.6886 0.540034 19.5809
H 22.0661 1.14852 18.2471
Ow 11.9847 7.69233 22.914
H 11.1922 7.91371 22.4249
H 12.6429 7.5222 22.2402
Ow 19.77 24.4343 11.9163
H 20.4545 24.0674 11.3567
H 18.9641 24.3274 11.411
Ow 21.7557 10.2081 24.9999
H 20.9066 10.4862 24.6567
H 22.3191 10.975 24.8967
Ow 4.27312 2.9487 17.1613
H 4.41184 2.12557 17.6298
H 4.03692 2.6823 16.2728
Ow 12.4978 14.5912 20.435
H 13.3159 14.4971 19.9472
H 12.7727 14.7079 21.3445
Ow 10.3752 7.87838 8.19897
H 10.4191 8.12314 7.27464
H 10.9092 8.53467 8.64665
Ow 15.5452 4.06106 23.5411
H 14.8234 3.61124 23.1019
H 15.1778 4.34366 24.3786
Ow 1.28764 18.0984 23.8442
H 2.17968 18.3047 23.565
H 1.21862 18.4722 24.7227
Ow 3.98237 16.7882 7.70427
H 4.8858 16.8926 7.4057
H 3.96225 17.2137 8.56149
Ow 20.0198 16.0663 20.889
H 20.1662 16.9122 21.3122
H 19.6199 15.5239 21.5688
Ow 8.13468 6.43588 9.13442
H 7.2371 6.57392 8.83188
H 8.64894 7.09553 8.66899
Ow 17.4434 5.31274 6.26979
H 17.4949 4.43035 5.9024
H 18.0149 5.83915 5.7107
Ow 19.1974 13.3596 16.434
H 19.3106 13.2994 15.4854
H 18.4274 12.8217 16.6184
Ow 25.1379 25.2701 18.1789
H 25.2275 0.591279 18.1021
H 25.1783 24.9515 17.2772
Ow 10.7124 25.8936 14.9619
H 9.90659 25.3948 14.8274
H 10.7663 0.843437 14.2012
Ow 4.71806 8.71658 10.0405
H 4.98529 7.82113 10.2479
H 3.77104 8.66096 9.91293
Ow 6.28198 23.2627 6.09821
H 5.69931 23.1158 5.35314
H 6.57043 24.1704 6.00188
Ow 22.7182 15.2481 23.5832
H 22.8025 15.9861 24.1868
H 22.9332 15.614 22.7252
Ow 2.68351 8.37566 5.15992
H 3.3686 8.3558 4.49172
H 3.09202 7.98828 5.93406
Ow 22.6623 4.186 11.19
H 22.4319 3.69302 10.4026
H 22.1482 3.77875 11.8872
Ow 20.873 18.3707 13.3554
H 20.6299 17.5113 13.0112
H 20.132 18.6279 13.904
Ow 4.41489 22.5723 3.83372
H 4.79697 23.0445 3.09394
H 3.984 21.8147 3.43809
Ow 20.0947 17.9982 4.25446
H 19.1701 18.2248 4.35443
H 20.4415 18.0057 5.14662
Ow 25.4469 9.05312 5.03478
H 25.024 8.19493 5.00397
H 0.74625 8.8588 5.16552
Ow 22.1288 11.0496 10.9706
H 22.1764 10.5915 10.1315
H 21.4602 11.7219 10.8393
Ow 16.2532 16.4828 1.8764
H 16.3537 17.2037 2.49796
H 15.4147 16.0826 2.10652
Ow 12.3088 15.1782 15.3023
H 12.1275 15.9231 15.8753
H 12.8305 14.5828 15.8404
Ow 11.4098 15.3423 0.790758
H 10.9046 16.0079 1.25762
H 11.4265 14.5926 1.38568
Ow 18.5143 15.8817 8.02196
H 18.3138 15.0686 8.4855
H 17.697 16.1147 7.58157
Ow 1.15442 10.7835 22.9132
H 25.9377 11.079 22.5752
H 0.968553 9.93569 23.3167
Ow 22.211 23.8854 14.4237
H 21.5362 24.5401 14.6035
H 22.2478 23.8348 13.4685
Ow 10.2439 23.0723 25.9335
H 10.8281 23.2262 25.191
H 9.44648 23.5547 25.7155
Ow 21.3597 9.01611 14.9618
H 20.644 9.28002 14.3835
H 22.1294 9.46407 14.6108
Ow 7.51022 15.0285 15.0539
H 8.36229 14.5931 15.0782
H 6.8902 14.331 14.8412
Ow 1.75224 20.5942 14.8384
H 2.63853 20.7005 15.184
H 1.72823 21.1545 14.0628
Ow 8.78713 11.5431 20.5207
H 8.91342 10.6488 20.8376
H 9.66817 11.847 20.3024
Ow 21.7956 21.3362 13.2805
H 21.285 21.9126 13.849
H 22.0723 21.8973 12.556
Ow 20.1552 3.77953 4.73372
H 20.2539 3.93989 5.67221
H 20.5458 2.9167 4.59528
Ow 14.9721 14.5058 19.6108
H 14.9006 14.2365 18.695
H 15.5308 13.841 20.0134
Ow 18.9325 12.9364 13.7748
H 18.8163 11.9866 13.7989
H 18.0419 13.2872 13.7753
Ow 9.75995 23.2274 11.9192
H 9.95142 24.0698 11.5069
H 9.40747 23.4558 12.7793
Ow 12.8329 1.60192 10.4854
H 12.0945 1.55896 11.0929
H 12.4503 1.91047 9.66404
Ow 12.293 3.90329 4.35824
H 11.6502 3.4402 4.89541
H 11.8927 3.94794 3.48995
Ow 1.3607 21.0553 7.56581
H 0.435773 20.8865 7.74538
H 1.71957 20.1997 7.33059
Ow 7.03035 2.58095 20.309
H 7.43405 2.01019 20.9629
H 6.37634 2.02926 19.8799
Ow 18.6421 7.76151 2.229
H 18.0439 8.5086 2.21308
H 18.7784 7.58299 3.15948
Ow 20.4097 4.39623 7.65238
H 21.1368 3.87482 7.99253
H 19.6264 3.97639 8.00786
Ow 16.3754 0.95727 0.631596
H 16.8608 0.971238 25.4354
H 16.5138 1.8272 1.00619
Ow 20.5945 9.09008 12.1624
H 19.7951 9.49388 12.5003
H 21.1109 9.82337 11.828
Ow 1.1111 20.7684 4.61237
H 1.75571 20.4294 3.99123
H 25.942 20.8772 4.09484
Ow 22.1881 19.4573 10.9841
H 22.0537 20.0762 10.2664
H 21.8967 18.6158 10.6331
Ow 3.02381 13.9039 8.5011
H 3.4255 14.7276 8.22487
H 2.4995 14.1375 9.26708
Ow 16.9662 11.784 6.49367
H 16.1103 11.8761 6.91209
H 16.8794 11.0098 5.93747
Ow 11.7369 17.6682 16.8937
H 11.3324 18.2583 16.2578
H 11.1594 17.7046 17.6562
Ow 16.8244 23.0651 4.09875
H 17.1421 22.5262 3.37427
H 16.8917 22.4982 4.86706
Ow 4.29592 19.7276 15.5346
H 4.17636 18.8036 15.3153
H 4.24759 19.7556 16.4902
Ow 10.8756 6.85083 25.1852
H 11.4015 6.9867 24.3971
H 11.5152 6.65233 25.8692
Ow 3.29003 13.6832 20.9845
H 2.84865 14.488 21.2558
H 2.79948 13.3872 20.2177
Ow 1.58337 1.82167 4.91576
H 2.30598 1.39333 4.45686
H 1.7583 1.65986 5.84283
Ow 6.52156 23.3655 2.27943
H 6.68261 22.7068 1.60385
H 6.81726 24.1876 1.88839
Ow 21.6483 17.0178 9.80129
H 22.3177 16.3723 9.57446
H 20.9791 16.5161 10.2668
Ow 2.58503 8.89003 0.932602
H 2.85036 8.08915 0.480464
H 2.95085 9.59767 0.401886
Ow 3.47599 12.5334 17.8722
H 2.75566 12.1063 18.3358
H 3.20829 12.5252 16.9532
Ow 4.74274 19.5381 6.59543
H 5.04736 19.3824 5.70146
H 3.79037 19.4584 6.54176
Ow 1.59738 24.0989 14.9904
H 0.667438 24.3235 15.0223
H 1.71519 23.6851 14.1354
Ow 13.869 24.8147 18.9435
H 13.4125 25.6458 19.0742
H 14.4985 24.9939 18.245
Ow 22.5736 7.07723 12.3085
H 22.5813 6.70732 13.1913
H 21.8517 7.70568 12.3178
Ow 6.21772 25.7479 4.71903
H 5.99334 0.629147 5.49739
H 6.67378 0.738768 4.14947
Ow 10.7805 24.0253 8.5374
H 10.3382 24.7507 8.97828
H 10.408 23.239 8.93635
Ow 19.8838 6.62249 24.943
H 20.8125 6.64969 24.7128
H 19.4772 6.11463 24.2409
Ow 18.0534 9.61281 22.4876
H 18.3391 10.3368 23.0447
H 18.7951 9.00784 22.481
Ow 22.379 3.25384 23.617
H 21.5181 3.20443 24.0324
H 22.9617 3.56715 24.3087
Ow 13.0466 18.0932 22.0486
H 13.9536 17.8432 21.8722
H 13.0879 19.0314 22.2336
Ow 15.8963 22.4667 24.6132
H 15.9606 21.8098 25.3065
H 15.4074 22.0314 23.9148
Ow 1.20117 25.066 23.008
H 1.35904 24.1262 22.9178
H 1.82998 25.4732 22.4122
Ow 19.4599 5.21927 15.2324
H 19.8934 4.44896 14.865
H 20.16 5.70188 15.6718
Ow 9.77746 5.02721 7.07469
H 10.6006 5.39623 6.75445
H 9.69842 4.18778 6.62155
Ow 19.4031 19.9211 11.5243
H 18.7846 20.1971 12.2007
H 18.9845 19.1667 11.1097
Ow 22.7214 13.8442 10.8563
H 23.3212 14.235 10.2208
H 23.07 12.9654 11.0064
Ow 22.4009 20.8617 6.13029
H 22.5935 21.2389 5.27186
H 21.4527 20.7312 6.12785
Ow 10.2832 22.0377 16.1515
H 9.81095 22.6664 15.6056
H 10.1586 21.1968 15.7117
Ow 25.9519 18.6741 19.1656
H 25.0237 18.4745 19.2869
H 0.401957 19.5995 19.3973
Ow 14.8657 12.9356 1.58341
H 14.8087 12.0311 1.27534
H 15.5236 12.9114 2.27825
Ow 25.868 2.14698 18.4985
H 0.781335 2.61819 19.1313
H 25.2388 2.79865 18.1891
Ow 12.8348 13.1871 8.27475
H 13.6792 12.7504 8.38616
H 12.6616 13.1385 7.3346
Ow 13.1829 13.7544 11.3694
H 14.1346 13.6903 11.4486
H 12.9531 14.5395 11.8666
Ow 13.7463 7.62122 20.7682
H 13.8345 8.57204 20.7018
H 14.622 7.3149 21.0038
Ow 14.8184 22.6142 11.9336
H 15.418 23.3342 11.7379
H 15.3869 21.8525 12.0471
Ow 8.26069 6.51466 23.8742
H 8.61258 7.12456 23.2258
H 7.37886 6.31363 23.5608
Ow 13.0404 21.9066 9.99884
H 13.7191 22.1649 10.6224
H 13.1693 22.4878 9.24929
Ow 5.70573 8.67133 24.4946
H 5.1057 7.99379 24.8063
H 5.27179 9.49574 24.7144
Ow 25.9656 14.1943 18.839
H 0.751855 14.7349 19.5112
H 25.348 14.783 18.4051
Ow 0.735811 8.35694 24.2659
H 25.7931 8.16751 23.5216
H 1.33562 7.61194 24.3036
Ow 0.780765 18.9842 0.898063
H 26.0003 19.7035 1.37917
H 1.67879 18.9549 1.22811
Ow 8.70166 11.1936 14.0051
H 8.33697 10.3307 13.8087
H 7.93642 11.7516 14.1439
Ow 14.8589 12.4453 21.7274
H 14.8046 13.0629 22.4567
H 15.0283 11.5991 22.1416
Ow 16.5111 19.7344 18.2126
H 16.6509 19.9733 19.1289
H 17.2292 20.1575 17.742
Ow 17.7044 13.7271 9.58309
H 17.1388 13.8667 10.3426
H 18.4787 13.29 9.93763
Ow 9.79598 14.2447 17.8356
H 9.09645 14.8974 17.8058
H 9.73843 13.8713 18.7151
Ow 7.42361 24.318 23.8542
H 6.4773 24.2342 23.7371
H 7.71282 24.8393 23.1053
Ow 2.18859 18.5238 6.76749
H 1.93563 18.3006 5.8717
H 2.78562 17.8231 7.02989
Ow 0.514349 1.25031 12.039
H 0.458953 2.13713 11.6831
H 25.249 0.913018 11.9832
Ow 8.8198 5.86315 20.1971
H 9.00408 6.64974 20.7105
H 9.59679 5.31557 20.3097
Ow 4.367 7.2764 7.44473
H 4.53475 6.34538 7.59066
H 3.71229 7.50839 8.10334
Ow 24.4171 18.8051 23.2509
H 24.0581 18.3018 22.5201
H 25.3011 18.4578 23.3701
Ow 13.3385 2.73353 22.2189
H 13.6814 2.34448 21.4144
H 12.4678 3.05115 21.9798
Ow 5.64214 17.6476 17.591
H 4.94262 17.2524 17.0707
H 5.22908 18.3983 18.0177
Ow 20.2476 25.7256 7.37597
H 19.989 25.5783 6.46622
H 21.1835 25.9215 7.33067
Ow 24.7194 0.800905 24.5695
H 24.2642 1.03858 25.3773
H 24.1995 25.7147 24.2025
Ow 6.36431 21.1431 20.063
H 5.9835 21.391 20.9055
H 5.60984 20.9579 19.5038
Ow 18.0021 17.8286 10.0714
H 18.2603 17.343 9.28793
H 18.1773 17.2271 10.7951
Ow 9.63984 25.6641 10.5853
H 9.81711 0.573334 11.357
H 8.68835 25.6941 10.4853
Ow 4.31864 16.0595 25.7622
H 4.49982 16.8383 25.236
H 5.15294 15.5913 25.793
Ow 8.15238 19.1095 20.969
H 7.91123 18.3748 21.5332
H 7.31623 19.4883 20.6978
Ow 4.56189 24.1827 23.8372
H 4.26471 23.2999 23.6166
H 4.23917 24.7304 23.1216
Ow 18.774 4.48164 10.5747
H 18.1127 4.96747 10.0819
H 18.9607 5.03346 11.3342
Ow 12.2652 17.5659 7.08757
H 11.7662 16.8243 6.74522
H 13.0044 17.6559 6.48614
Ow 8.93271 22.0413 18.6339
H 9.34399 21.9452 17.7749
H 9.49639 22.657 19.1023
Ow 6.05944 19.2813 4.15544
H 6.42665 18.3974 4.14341
H 5.23866 19.2068 3.66862
Ow 12.8668 22.9544 16.8843
H 12.9527 23.5645 17.6169
H 11.9641 23.0638 16.5855
Ow 15.6928 25.8635 17.0501
H 15.5567 1.14604 17.3097
H 15.4016 25.8275 16.139
Ow 10.305 21.8621 21.4275
H 10.7333 22.4387 20.7948
H 10.6084 22.1738 22.2801
Ow 2.07677 1.03579 16.4804
H 1.77467 1.37614 17.3225
H 1.37515 1.25503 15.8673
Ow 24.4227 11.9781 19.3081
H 24.7634 11.2972 18.728
H 25.0948 12.6597 19.2986
Ow 10.7277 1.98359 8.83173
H 10.7044 2.0127 7.87526
H 10.1975 1.22051 9.06158
Ow 19.4742 10.9522 5.04406
H 19.6227 11.3916 4.20671
H 19.4089 10.024 4.81975
Ow 18.1737 25.4947 4.56225
H 17.6996 24.6736 4.6936
H 17.6037 0.535421 4.94072
Ow 9.28303 9.4928 10.9901
H 8.9939 8.82357 11.6103
H 10.1347 9.77633 11.3226
Ow 5.80852 24.3918 12.8671
H 6.49147 24.203 13.5107
H 6.097 25.1987 12.4407
Ow 8.09637 25.2764 0.846232
H 7.87654 25.1525 25.5516
H 8.90594 25.787 0.833768
Ow 21.919 14.6633 13.473
H 21.1597 15.2038 13.2547
H 22.2188 14.3195 12.6315
Ow 1.91925 22.2803 1.1564
H 1.01202 21.9817 1.21948
H 2.43197 21.5756 1.55231
Ow 5.52134 18.2977 13.0176
H 6.09685 17.5355 13.081
H 4.99209 18.1346 12.2369
Ow 2.51045 3.20047 9.72732
H 3.03571 2.61561 10.2735
H 3.09778 3.45669 9.01624
Ow 9.16387 23.21 6.01147
H 10.0032 22.7606 6.1105
H 9.16759 23.879 6.69597
Ow 24.5216 17.3555 15.547
H 24.1006 18.2095 15.4491
H 25.3404 17.5428 16.0061
Ow 24.7547 12.0536 15.5656
H 25.4503 11.4783 15.8839
H 24.4163 11.6126 14.7864
Ow 20.9079 23.4772 2.47682
H 20.7102 22.5648 2.2655
H 21.8626 23.5316 2.43592
Ow 11.9168 4.18625 13.9954
H 11.2979 4.6648 14.547
H 11.3664 3.63098 13.4432
Ow 19.7071 3.01612 18.2439
H 19.4028 2.63726 19.0686
H 19.6004 3.96028 18.3597
Ow 19.221 13.5203 6.78932
H 19.7441 13.7779 6.03024
H 18.9276 14.3478 7.17059
Ow 24.6495 25.1364 21.0233
H 24.9749 0.407122 21.0613
H 25.2555 24.6386 21.572
Ow 11.9291 20.6375 25.2146
H 12.5926 20.6319 24.5247
H 11.1144 20.4114 24.7658
Ow 13.9459 15.9739 3.01656
H 13.886 16.5293 3.79382
H 13.1354 15.4647 3.02242
Ow 1.74235 17.8662 4.26916
H 1.92096 16.9976 3.90879
H 2.34421 18.4474 3.80413
Ow 23.3742 23.8565 24.3091
H 22.8314 23.819 23.5215
H 22.7496 23.8147 25.0332
Ow 15.7825 18.8879 25.1135
H 15.1087 18.2708 25.3987
H 15.3796 19.3646 24.3878
Ow 1.3655 18.1492 16.2683
H 1.3971 18.4643 17.1716
H 1.34522 18.9452 15.737
Ow 22.8358 20.3412 25.4403
H 21.925 20.6355 25.4529
H 23.1324 20.4399 0.716342
Ow 2.23015 1.46274 7.47365
H 3.1492 1.36203 7.22576
H 2.25229 2.0051 8.26206
Ow 14.7007 0.930421 6.89142
H 14.9669 1.66662 7.44221
H 14.5933 1.30978 6.01918
Ow 4.12999 25.6056 0.809175
H 4.45302 25.0657 25.7165
H 4.59296 0.809076 0.712092
Ow 18.4493 25.3216 1.84126
H 18.2367 25.2985 2.77427
H 17.716 25.7876 1.43956
Ow 25.1305 22.9895 6.00578
H 24.9852 23.0993 6.94551
H 24.3383 23.3395 5.59801
Ow 24.2915 11.3202 22.0602
H 24.2146 11.5447 21.1329
H 23.9911 10.4129 22.1133
Ow 19.4323 10.7187 7.94792
H 20.32 10.5204 8.24605
H 18.8844 10.5881 8.72188
Ow 25.1113 13.2278 7.84642
H 25.3003 12.9001 8.72572
H 25.9662 13.4741 7.49321
Ow 21.3391 21.4549 8.89109
H 21.8671 21.4659 8.09274
H 21.6177 22.233 9.37385
Ow 14.8478 20.8005 7.68228
H 15.1519 19.9153 7.88252
H 13.9115 20.6997 7.51116
Ow 4.0233 2.97898 22.7663
H 3.26334 3.3336 22.3049
H 4.73305 3.58839 22.5636
Ow 12.1252 20.1685 8.08386
H 11.876 20.6443 7.29158
H 11.9226 19.2537 7.88813
Ow 4.3857 15.4705 2.86827
H 3.44208 15.3926 3.00875
H 4.4668 15.9471 2.04215
Ow 23.0759 23.3374 19.1184
H 22.4672 23.3152 19.8568
H 22.5165 23.2732 18.3442
Ow 22.1687 9.13351 20.1735
H 21.8766 10.0264 20.3569
H 22.8435 8.962 20.8303
Ow 25.082 13.5417 25.9614