LAMMPS (23 Jun 2022 - Update 2)
WARNING: Using I/O redirection is unreliable with parallel runs. Better use -in switch to read input file. (../lammps.cpp:530)
Reading data file ...
  orthogonal box = (0 0 0) to (26.379509 26.379509 26.379509)
  2 by 2 by 3 MPI processor grid
  reading atoms ...
  1608 atoms
  scanning bonds ...
  2 = max bonds/atom
  scanning angles ...
  1 = max angles/atom
  reading bonds ...
  1000 bonds
  reading angles ...
  500 angles
Finding 1-2 1-3 1-4 neighbors ...
  special bond factors lj:    0        0        0       
  special bond factors coul:  0        0        0       
     2 = max # of 1-2 neighbors
     1 = max # of 1-3 neighbors
     1 = max # of 1-4 neighbors
     2 = max # of special neighbors
  special bonds CPU = 0.003 seconds
  read_data CPU = 0.023 seconds
Setting atom values ...
  500 settings made for charge
Setting atom values ...
  1000 settings made for charge
Setting atom values ...
  54 settings made for charge
Setting atom values ...
  54 settings made for charge
500 atoms in group wat
54 atoms in group Li
54 atoms in group Cl
PPPM initialization ...
  extracting TIP4P info from pair style
  using 12-bit tables for long-range coulomb (../kspace.cpp:342)
  G vector (1/distance) = 0.31127036
  grid = 25 25 25
  stencil order = 5
  estimated absolute RMS force accuracy = 0.0034097995
  estimated relative force accuracy = 1.026851e-05
  using double precision KISS FFT
  3d grid and FFT values/proc = 6400 1875
Generated 0 of 6 mixed pair_coeff terms from arithmetic mixing rule
Neighbor list info ...
  update every 1 steps, delay 0 steps, check yes
  max neighbors/atom: 2000, page size: 100000
  master list distance cutoff = 12.3092
  ghost atom cutoff = 12.3092
  binsize = 6.1546, bins = 5 5 5
  1 neighbor lists, perpetual/occasional/extra = 1 0 0
  (1) pair lj/cut/tip4p/long, perpetual
      attributes: half, newton on
      pair build: half/bin/newton
      stencil: half/bin/3d
      bin: standard
Setting up cg style minimization ...
  Unit style    : real
  Current step  : 0
Per MPI rank memory allocation (min/avg/max) = 8.944 | 8.964 | 9.004 Mbytes
   Step          Temp          E_pair         E_mol          TotEng         Press     
         0   0              641.68376      3.1566538e-05  641.68379      52703.279    
      1000   0             -15695.723      94.172312     -15601.551     -5299.7128    
Loop time of 5.93777 on 12 procs for 1000 steps with 1608 atoms

93.1% CPU use with 12 MPI tasks x no OpenMP threads

Minimization stats:
  Stopping criterion = max iterations
  Energy initial, next-to-last, final = 
      641.683787181595  -15601.0710018281   -15601.550789311
  Force two-norm initial, final = 2112.4623 42.476166
  Force max component initial, final = 608.22136 9.3161348
  Final line search alpha, max atom move = 0.0026960674 0.025116928
  Iterations, force evaluations = 1000 1842

MPI task timing breakdown:
Section |  min time  |  avg time  |  max time  |%varavg| %total
---------------------------------------------------------------
Pair    | 3.3496     | 3.662      | 4.049      |  11.5 | 61.67
Bond    | 0.016715   | 0.018048   | 0.019313   |   0.5 |  0.30
Kspace  | 1.5093     | 1.8946     | 2.2036     |  16.0 | 31.91
Neigh   | 0.030735   | 0.030765   | 0.030806   |   0.0 |  0.52
Comm    | 0.22668    | 0.2332     | 0.23828    |   0.7 |  3.93
Output  | 7.2634e-05 | 8.7381e-05 | 0.00023375 |   0.0 |  0.00
Modify  | 0          | 0          | 0          |   0.0 |  0.00
Other   |            | 0.09913    |            |       |  1.67

Nlocal:            134 ave         140 max         128 min
Histogram: 1 1 1 0 3 2 0 2 1 1
Nghost:        4116.92 ave        4183 max        4017 min
Histogram: 1 0 1 0 3 0 2 1 1 3
Neighs:        45853.6 ave       49043 max       42855 min
Histogram: 3 1 0 1 0 1 3 1 0 2

Total # of neighbors = 550243
Ave neighs/atom = 342.19092
Ave special neighs/atom = 1.8656716
Neighbor list builds = 16
Dangerous builds = 0
Finding SHAKE clusters ...
       0 = # of size 2 clusters
       0 = # of size 3 clusters
       0 = # of size 4 clusters
     500 = # of frozen angles
  find clusters CPU = 0.001 seconds
PPPM initialization ...
  extracting TIP4P info from pair style
  using 12-bit tables for long-range coulomb (../kspace.cpp:342)
  G vector (1/distance) = 0.31127036
  grid = 25 25 25
  stencil order = 5
  estimated absolute RMS force accuracy = 0.0034097995
  estimated relative force accuracy = 1.026851e-05
  using double precision KISS FFT
  3d grid and FFT values/proc = 6400 1875
Generated 0 of 6 mixed pair_coeff terms from arithmetic mixing rule
Setting up Verlet run ...
  Unit style    : real
  Current step  : 0
  Time step     : 0.001
Per MPI rank memory allocation (min/avg/max) = 8.694 | 8.714 | 8.754 Mbytes
   Step        Density          Temp          Press          TotEng    
         0   1.0219065      432.81576     -4299155.1     -14267.536    
     10000   1.0318144      171.59248      1573.697      -14475.485    
Loop time of 43.067 on 12 procs for 10000 steps with 1608 atoms

Performance: 0.020 ns/day, 1196.306 hours/ns, 232.196 timesteps/s
91.9% CPU use with 12 MPI tasks x no OpenMP threads

MPI task timing breakdown:
Section |  min time  |  avg time  |  max time  |%varavg| %total
---------------------------------------------------------------
Pair    | 21.684     | 24.367     | 26.984     |  29.8 | 56.58
Bond    | 0.0068226  | 0.0076148  | 0.011263   |   1.3 |  0.02
Kspace  | 7.9489     | 10.574     | 13.254     |  45.2 | 24.55
Neigh   | 0          | 0          | 0          |   0.0 |  0.00
Comm    | 1.1977     | 1.2281     | 1.2518     |   1.6 |  2.85
Output  | 6.4744e-05 | 8.6994e-05 | 0.00031608 |   0.0 |  0.00
Modify  | 4.6306     | 5.1266     | 6.7431     |  22.0 | 11.90
Other   |            | 1.763      |            |       |  4.09

Nlocal:            134 ave         139 max         128 min
Histogram: 2 0 1 0 2 3 0 0 1 3
Nghost:         4126.5 ave        4191 max        4024 min
Histogram: 1 0 1 0 2 1 2 1 2 2
Neighs:        45850.9 ave       48798 max       41816 min
Histogram: 1 0 2 1 1 0 1 4 0 2

Total # of neighbors = 550211
Ave neighs/atom = 342.17102
Ave special neighs/atom = 1.8656716
Neighbor list builds = 0
Dangerous builds = 0
PPPM initialization ...
  extracting TIP4P info from pair style
  using 12-bit tables for long-range coulomb (../kspace.cpp:342)
  G vector (1/distance) = 0.31150098
  grid = 25 25 25
  stencil order = 5
  estimated absolute RMS force accuracy = 0.0033773356
  estimated relative force accuracy = 1.0170746e-05
  using double precision KISS FFT
  3d grid and FFT values/proc = 6400 1875
Generated 0 of 6 mixed pair_coeff terms from arithmetic mixing rule
Setting up Verlet run ...
  Unit style    : real
  Current step  : 10000
  Time step     : 0.01
Per MPI rank memory allocation (min/avg/max) = 8.694 | 8.714 | 8.754 Mbytes
   Step        Density          Temp          Press          TotEng    
     10000   1.0318144      171.59248     -187890.95     -14475.485    
     20000   1.0335162      307.74738      680.53309     -13400.781    
Loop time of 43.0391 on 12 procs for 10000 steps with 1608 atoms

Performance: 0.201 ns/day, 119.553 hours/ns, 232.347 timesteps/s
92.0% CPU use with 12 MPI tasks x no OpenMP threads

MPI task timing breakdown:
Section |  min time  |  avg time  |  max time  |%varavg| %total
---------------------------------------------------------------
Pair    | 21.638     | 24.125     | 26.832     |  29.7 | 56.05
Bond    | 0.0067918  | 0.0075963  | 0.0099771  |   0.9 |  0.02
Kspace  | 8.0127     | 10.717     | 13.205     |  44.6 | 24.90
Neigh   | 0.0076342  | 0.0076541  | 0.0076783  |   0.0 |  0.02
Comm    | 1.2551     | 1.2834     | 1.3188     |   1.6 |  2.98
Output  | 6.3307e-05 | 7.8889e-05 | 0.00023804 |   0.0 |  0.00
Modify  | 4.6444     | 5.1402     | 6.754      |  22.0 | 11.94
Other   |            | 1.758      |            |       |  4.08

Nlocal:            134 ave         145 max         128 min
Histogram: 2 2 2 0 3 1 1 0 0 1
Nghost:        4158.33 ave        4254 max        4077 min
Histogram: 2 0 1 2 2 2 0 1 1 1
Neighs:          46207 ave       49588 max       42491 min
Histogram: 1 3 0 1 0 2 0 2 0 3

Total # of neighbors = 554484
Ave neighs/atom = 344.82836
Ave special neighs/atom = 1.8656716
Neighbor list builds = 4
Dangerous builds = 0
PPPM initialization ...
  extracting TIP4P info from pair style
  using 12-bit tables for long-range coulomb (../kspace.cpp:342)
  G vector (1/distance) = 0.31154034
  grid = 25 25 25
  stencil order = 5
  estimated absolute RMS force accuracy = 0.0033718233
  estimated relative force accuracy = 1.0154146e-05
  using double precision KISS FFT
  3d grid and FFT values/proc = 6400 1875
Generated 0 of 6 mixed pair_coeff terms from arithmetic mixing rule
Setting up Verlet run ...
  Unit style    : real
  Current step  : 20000
  Time step     : 0.1
Per MPI rank memory allocation (min/avg/max) = 8.694 | 8.714 | 8.754 Mbytes
   Step        Density          Temp          Press          TotEng    
     20000   1.0335162      307.74738     -16410.123     -13400.781    
     30000   1.0703694      296.54898      806.01141     -13620.048    
Loop time of 44.3473 on 12 procs for 10000 steps with 1608 atoms

Performance: 1.948 ns/day, 12.319 hours/ns, 225.493 timesteps/s
92.2% CPU use with 12 MPI tasks x no OpenMP threads

MPI task timing breakdown:
Section |  min time  |  avg time  |  max time  |%varavg| %total
---------------------------------------------------------------
Pair    | 21.467     | 25.516     | 27.568     |  32.4 | 57.54
Bond    | 0.006892   | 0.0076567  | 0.0093106  |   0.7 |  0.02
Kspace  | 8.4594     | 10.516     | 14.554     |  50.5 | 23.71
Neigh   | 0.085854   | 0.085999   | 0.086118   |   0.0 |  0.19
Comm    | 1.2757     | 1.3031     | 1.3219     |   1.3 |  2.94
Output  | 6.1317e-05 | 7.833e-05  | 0.00024721 |   0.0 |  0.00
Modify  | 4.663      | 5.1578     | 6.7714     |  21.9 | 11.63
Other   |            | 1.761      |            |       |  3.97

Nlocal:            134 ave         148 max         120 min
Histogram: 1 1 0 1 2 2 3 1 0 1
Nghost:           4198 ave        4288 max        4081 min
Histogram: 1 0 1 0 3 3 0 1 1 2
Neighs:        48015.8 ave       52097 max       40229 min
Histogram: 1 0 1 0 1 1 1 1 4 2

Total # of neighbors = 576190
Ave neighs/atom = 358.32711
Ave special neighs/atom = 1.8656716
Neighbor list builds = 43
Dangerous builds = 0
PPPM initialization ...
  extracting TIP4P info from pair style
  using 12-bit tables for long-range coulomb (../kspace.cpp:342)
  G vector (1/distance) = 0.31237534
  grid = 25 25 25
  stencil order = 5
  estimated absolute RMS force accuracy = 0.0032568
  estimated relative force accuracy = 9.8077564e-06
  using double precision KISS FFT
  3d grid and FFT values/proc = 6400 1875
Generated 0 of 6 mixed pair_coeff terms from arithmetic mixing rule
Setting up Verlet run ...
  Unit style    : real
  Current step  : 30000
  Time step     : 0.2
Per MPI rank memory allocation (min/avg/max) = 8.694 | 8.714 | 8.754 Mbytes
   Step        Density          Temp          Press          TotEng    
     30000   1.0703694      296.54898      8614.3971     -13620.048    
     40000   1.1078588      302.64738      346.31598     -13716.956    
Loop time of 45.7486 on 12 procs for 10000 steps with 1608 atoms

Performance: 3.777 ns/day, 6.354 hours/ns, 218.586 timesteps/s
92.3% CPU use with 12 MPI tasks x no OpenMP threads

MPI task timing breakdown:
Section |  min time  |  avg time  |  max time  |%varavg| %total
---------------------------------------------------------------
Pair    | 24.234     | 26.582     | 28.09      |  26.3 | 58.10
Bond    | 0.0069746  | 0.0077175  | 0.010083   |   0.9 |  0.02
Kspace  | 9.1949     | 10.72      | 13.07      |  41.4 | 23.43
Neigh   | 0.17447    | 0.17487    | 0.17513    |   0.1 |  0.38
Comm    | 1.2959     | 1.328      | 1.3504     |   1.2 |  2.90
Output  | 6.3657e-05 | 7.9251e-05 | 0.00024379 |   0.0 |  0.00
Modify  | 4.678      | 5.177      | 6.7938     |  21.9 | 11.32
Other   |            | 1.759      |            |       |  3.84

Nlocal:            134 ave         151 max         122 min
Histogram: 1 3 0 2 1 3 0 1 0 1
Nghost:        4273.75 ave        4333 max        4218 min
Histogram: 2 0 2 1 2 1 0 1 2 1
Neighs:        49653.2 ave       53970 max       45779 min
Histogram: 2 2 1 2 0 0 0 2 1 2

Total # of neighbors = 595839
Ave neighs/atom = 370.54664
Ave special neighs/atom = 1.8656716
Neighbor list builds = 85
Dangerous builds = 0
PPPM initialization ...
  extracting TIP4P info from pair style
  using 12-bit tables for long-range coulomb (../kspace.cpp:342)
  G vector (1/distance) = 0.31027259
  grid = 24 24 24
  stencil order = 5
  estimated absolute RMS force accuracy = 0.0037781276
  estimated relative force accuracy = 1.1377719e-05
  using double precision KISS FFT
  3d grid and FFT values/proc = 5415 1152
Generated 0 of 6 mixed pair_coeff terms from arithmetic mixing rule
Setting up Verlet run ...
  Unit style    : real
  Current step  : 40000
  Time step     : 0.5
Per MPI rank memory allocation (min/avg/max) = 8.66 | 8.665 | 8.669 Mbytes
   Step        Density          Temp          Press          TotEng    
     40000   1.1078588      302.64738      954.24088     -13716.932    
     50000   1.1328704      296.09519      266.57522     -13784.787    
Loop time of 44.6523 on 12 procs for 10000 steps with 1608 atoms

Performance: 9.675 ns/day, 2.481 hours/ns, 223.953 timesteps/s
94.1% CPU use with 12 MPI tasks x no OpenMP threads

MPI task timing breakdown:
Section |  min time  |  avg time  |  max time  |%varavg| %total
---------------------------------------------------------------
Pair    | 25.251     | 27.592     | 29.416     |  26.3 | 61.79
Bond    | 0.0069048  | 0.0074341  | 0.0083532  |   0.5 |  0.02
Kspace  | 8.4352     | 10.256     | 12.582     |  43.2 | 22.97
Neigh   | 0.45817    | 0.4591     | 0.45988    |   0.1 |  1.03
Comm    | 1.3075     | 1.3254     | 1.3527     |   1.1 |  2.97
Output  | 6.5399e-05 | 8.0541e-05 | 0.00024038 |   0.0 |  0.00
Modify  | 4.5242     | 4.7913     | 4.8484     |   3.7 | 10.73
Other   |            | 0.2208     |            |       |  0.49

Nlocal:            134 ave         146 max         119 min
Histogram: 1 0 1 0 2 5 0 0 2 1
Nghost:           4367 ave        4392 max        4334 min
Histogram: 2 0 1 0 1 2 0 2 2 2
Neighs:        50742.8 ave       57429 max       46167 min
Histogram: 2 1 1 2 2 2 1 0 0 1

Total # of neighbors = 608914
Ave neighs/atom = 378.67786
Ave special neighs/atom = 1.8656716
Neighbor list builds = 219
Dangerous builds = 0
PPPM initialization ...
  extracting TIP4P info from pair style
  using 12-bit tables for long-range coulomb (../kspace.cpp:342)
  G vector (1/distance) = 0.31080897
  grid = 24 24 24
  stencil order = 5
  estimated absolute RMS force accuracy = 0.0036952819
  estimated relative force accuracy = 1.1128232e-05
  using double precision KISS FFT
  3d grid and FFT values/proc = 5415 1152
Generated 0 of 6 mixed pair_coeff terms from arithmetic mixing rule
Setting up Verlet run ...
  Unit style    : real
  Current step  : 0
  Time step     : 2
Per MPI rank memory allocation (min/avg/max) = 8.661 | 8.666 | 8.669 Mbytes
   Step        Density          Temp          Press          TotEng    
         0   1.1328704      296.09519      208.14669     -13784.787    
    100000   1.1002105      294.68456     -737.17107     -13930.202    
    200000   1.1092425      292.78565      67.597691     -13926.536    
    300000   1.1198143      305.77902      636.98263     -13913.323    
    400000   1.1214595      293.98912     -159.02936     -13911.954    
    500000   1.1169306      302.89992      58.022781     -13915.642    
    600000   1.1080408      300.069       -956.40067     -13898.249    
    700000   1.104526       305.81443      749.04389     -13881.867    
    800000   1.1132026      307.73775      154.71445     -13884.375    
    900000   1.126122       299.69074      1034.5863     -13931.389    
   1000000   1.129963       288.91814      1377.5638     -13936.72     
   1100000   1.1178775      298.09188     -165.06952     -13876.888    
   1200000   1.1325283      311.07707      406.52483     -13961.168    
   1300000   1.1185074      290.90915      1170.9958     -13978.601    
   1400000   1.1135547      298.59391     -270.16385     -13851.492    
   1500000   1.11854        296.10579     -548.97734     -13949.559    
   1600000   1.0985257      294.62095     -37.693337     -13909.237    
   1700000   1.1146087      300.42638     -226.55589     -13893.903    
   1800000   1.1114222      284.01884     -790.44148     -13982.7      
   1900000   1.0993241      296.69847     -495.07407     -13909.52     
   2000000   1.1088523      290.65946     -1411.9537     -13883.652    
   2100000   1.1067137      293.3513      -47.211984     -13892.941    
   2200000   1.100243       296.47822      576.13545     -13829.803    
   2300000   1.1061409      281.55288      156.1702      -13948.397    
   2400000   1.119283       295.36108      162.85439     -13973.401    
   2500000   1.0980246      295.9381      -947.75487     -13914.446    
   2600000   1.1110168      301.46081      280.11343     -13893.27     
   2700000   1.1146239      316.7297       331.31795     -13814.259    
   2800000   1.1124548      291.75851     -273.23261     -13949.273    
   2900000   1.128113       287.38506      1076.6646     -13923.154    
   3000000   1.1078987      291.97035     -251.4483      -13973.026    
   3100000   1.1109977      311.84168      70.016266     -13818.852    
   3200000   1.1070841      296.63023      173.38631     -13944.24     
   3300000   1.1083255      297.33456      725.18074     -13881.56     
   3400000   1.113632       303.69365      90.433269     -13902.147    
   3500000   1.1153551      303.82249     -396.87559     -13881.289    
   3600000   1.1126911      295.08183      277.24524     -13920.759    
   3700000   1.1160101      291.89125     -133.62213     -13875.812    
   3800000   1.1104773      300.00245      481.914       -13912.61     
   3900000   1.1155359      279.5041      -441.09648     -13985.418    
   4000000   1.1297671      291.54314      890.2778      -13909.627    
   4100000   1.1097733      302.95583      717.59626     -13894.754    
   4200000   1.1153216      305.33494      381.06762     -13876.551    
   4300000   1.1219368      304.22081     -183.35153     -13893.587    
   4400000   1.1204722      302.83313      78.420749     -13904.203    
   4500000   1.1010037      284.45812     -474.26012     -13940.823    
   4600000   1.1033723      300.32284     -427.55944     -13880.609    
   4700000   1.1060508      301.6693       294.75615     -13896.657    
   4800000   1.1039124      303.74629     -1021.6127     -13908.233    
   4900000   1.127936       296.11857     -1020.131      -13920.15     
   5000000   1.1112998      286.23555      1772.0015     -13896.724    
Loop time of 23381.9 on 12 procs for 5000000 steps with 1608 atoms

Performance: 36.952 ns/day, 0.649 hours/ns, 213.841 timesteps/s
94.1% CPU use with 12 MPI tasks x no OpenMP threads

MPI task timing breakdown:
Section |  min time  |  avg time  |  max time  |%varavg| %total
---------------------------------------------------------------
Pair    | 12990      | 13946      | 14670      | 536.4 | 59.64
Bond    | 3.3752     | 3.7329     | 4.1828     |  12.6 |  0.02
Kspace  | 4589.8     | 5309.9     | 6274       | 871.0 | 22.71
Neigh   | 854.13     | 854.37     | 854.64     |   0.5 |  3.65
Comm    | 723.61     | 732.02     | 743.03     |  19.4 |  3.13
Output  | 0.0032138  | 0.0040203  | 0.012446   |   4.0 |  0.00
Modify  | 2286.5     | 2421.3     | 2449.1     |  84.0 | 10.36
Other   |            | 115.1      |            |       |  0.49

Nlocal:            134 ave         148 max         126 min
Histogram: 2 3 1 1 1 2 0 1 0 1
Nghost:        4321.42 ave        4381 max        4246 min
Histogram: 1 2 1 0 0 1 2 3 0 2
Neighs:        49819.8 ave       56278 max       43947 min
Histogram: 2 0 1 1 4 0 2 0 1 1

Total # of neighbors = 597838
Ave neighs/atom = 371.7898
Ave special neighs/atom = 1.8656716
Neighbor list builds = 402181
Dangerous builds = 0
PPPM initialization ...
  extracting TIP4P info from pair style
  using 12-bit tables for long-range coulomb (../kspace.cpp:342)
  G vector (1/distance) = 0.31034717
  grid = 24 24 24
  stencil order = 5
  estimated absolute RMS force accuracy = 0.0037665067
  estimated relative force accuracy = 1.1342723e-05
  using double precision KISS FFT
  3d grid and FFT values/proc = 5415 1152
Generated 0 of 6 mixed pair_coeff terms from arithmetic mixing rule
Setting up Verlet run ...
  Unit style    : real
  Current step  : 0
  Time step     : 2
Per MPI rank memory allocation (min/avg/max) = 8.661 | 8.667 | 8.67 Mbytes
   Step        Density          Temp          Press          TotEng    
         0   1.1112998      286.23555      1819.9443     -13896.723    
    100000   1.0993707      287.95788      309.31003     -13910.45     
    200000   1.1119064      293.13311     -126.89602     -13963.346    
    300000   1.1317848      306.29318      860.14826     -13914.082    
    400000   1.1081796      287.48298     -369.92203     -13898.508    
    500000   1.1211379      290.67171      84.67064      -13909.31     
    600000   1.1173665      304.4325       571.49065     -13902.883    
    700000   1.1017702      306.00102      167.36825     -13890.961    
    800000   1.126069       286.46083      1350.8462     -13989.265    
    900000   1.1133689      290.48633     -220.63062     -13945.183    
   1000000   1.1212702      305.59399      677.87826     -13901.971    
   1100000   1.1167541      294.71531      1664.2688     -13880.614    
   1200000   1.118197       297.2587      -286.49123     -13931.519    
   1300000   1.096712       290.14786     -1762.6319     -13848.125    
   1400000   1.1174995      287.8994       647.96583     -13871.055    
   1500000   1.1290371      304.40259      908.88363     -13945.812    
   1600000   1.0952354      294.84243     -631.72539     -13951.715    
   1700000   1.1016888      288.96786     -11.00356      -13907.681    
   1800000   1.1220476      309.60243      7.9688847     -13878.26     
   1900000   1.1267216      279.44417      985.22467     -13991.896    
   2000000   1.125374       294.75588      989.94204     -13885.349    
   2100000   1.115863       304.20423     -243.36859     -13927.403    
   2200000   1.1172619      285.67508      246.4023      -13951.157    
   2300000   1.1202977      309.97345     -532.22209     -13911.76     
   2400000   1.097902       297.98302      643.47837     -13852.997    
   2500000   1.1030898      300.62706     -67.148967     -13899.8      
   2600000   1.1111161      307.31159     -237.37949     -13819.561    
   2700000   1.1083975      307.68261     -1321.4406     -13910.077    
   2800000   1.1174497      295.35567      368.30517     -13972.943    
   2900000   1.1212097      303.42036      303.96029     -13876.142    
   3000000   1.1240518      297.17557     -170.46944     -13912.222    
   3100000   1.1135516      300.20014     -24.493231     -13929.903    
   3200000   1.1036787      301.6296      -133.18349     -13882.806    
   3300000   1.099855       303.53825     -824.6142      -13955.39     
   3400000   1.1019186      301.89789     -113.08428     -13927.892    
   3500000   1.1084197      299.70858      554.73927     -13952.609    
   3600000   1.09898        286.9233      -675.81768     -13959.992    
   3700000   1.1139679      283.30571     -793.21546     -13958.918    
   3800000   1.1171186      292.68981      744.06263     -13985.381    
   3900000   1.1211516      302.92975      754.28165     -13890.08     
   4000000   1.1184247      305.82391     -0.077176985   -13835.075    
   4100000   1.1073059      293.62645      117.38822     -13930.549    
   4200000   1.1080533      298.98715      12.59937      -13895.475    
   4300000   1.1229257      297.72695      116.22078     -13903.889    
   4400000   1.1113619      293.234        376.10186     -13969.993    
   4500000   1.1413571      299.10929      1865.1782     -13937.577    
   4600000   1.1073904      293.41376     -267.02333     -13931.176    
   4700000   1.1138989      303.04426      733.54595     -13882.659    
   4800000   1.1119041      297.64458      112.0624      -13962.725    
   4900000   1.0977229      294.69881      551.15507     -13910.192    
   5000000   1.1237475      300.32295     -974.50743     -13946.95     
Loop time of 23505.3 on 12 procs for 5000000 steps with 1608 atoms

Performance: 36.758 ns/day, 0.653 hours/ns, 212.718 timesteps/s
94.2% CPU use with 12 MPI tasks x no OpenMP threads

MPI task timing breakdown:
Section |  min time  |  avg time  |  max time  |%varavg| %total
---------------------------------------------------------------
Pair    | 12928      | 14008      | 14672      | 494.4 | 59.60
Bond    | 3.6413     | 3.9318     | 4.2836     |  10.3 |  0.02
Kspace  | 4510.2     | 5172.1     | 6246.5     | 814.7 | 22.00
Neigh   | 853.57     | 853.84     | 854.11     |   0.6 |  3.63
Comm    | 724.97     | 733.97     | 746.5      |  21.0 |  3.12
Output  | 0.22318    | 0.2237     | 0.2289     |   0.3 |  0.00
Modify  | 2482.6     | 2617.7     | 2647.8     |  81.1 | 11.14
Other   |            | 115        |            |       |  0.49

Nlocal:            134 ave         138 max         130 min
Histogram: 1 2 2 0 0 1 2 1 2 1
Nghost:        4326.08 ave        4353 max        4304 min
Histogram: 3 1 0 3 0 0 2 0 1 2
Neighs:        50359.4 ave       56079 max       46074 min
Histogram: 3 0 1 2 2 1 0 2 0 1

Total # of neighbors = 604313
Ave neighs/atom = 375.81654
Ave special neighs/atom = 1.8656716
Neighbor list builds = 402042
Dangerous builds = 0
Changing box ...
  orthogonal box = (0.4111278 0.4111278 0.4111278) to (26.04044 25.968381 25.968381)
  orthogonal box = (0.4111278 0.4111278 0.4111278) to (26.04044 26.04044 25.968381)
  orthogonal box = (0.4111278 0.4111278 0.4111278) to (26.04044 26.04044 26.04044)
PPPM initialization ...
  extracting TIP4P info from pair style
  using 12-bit tables for long-range coulomb (../kspace.cpp:342)
  G vector (1/distance) = 0.31041189
  grid = 24 24 24
  stencil order = 5
  estimated absolute RMS force accuracy = 0.0037564486
  estimated relative force accuracy = 1.1312433e-05
  using double precision KISS FFT
  3d grid and FFT values/proc = 5415 1152
Generated 0 of 6 mixed pair_coeff terms from arithmetic mixing rule
Setting up Verlet run ...
  Unit style    : real
  Current step  : 5000000
  Time step     : 0.001
Per MPI rank memory allocation (min/avg/max) = 8.661 | 8.667 | 8.67 Mbytes
   Step        Density          Temp          Press          TotEng    
   5000000   1.1142955      300.32295     -64984.915     -13979.08     
   5010000   1.1142955      294.98706     -1974.7743     -13932.468    
Loop time of 30.4583 on 12 procs for 10000 steps with 1608 atoms

Performance: 0.028 ns/day, 846.063 hours/ns, 328.318 timesteps/s
93.9% CPU use with 12 MPI tasks x no OpenMP threads

MPI task timing breakdown:
Section |  min time  |  avg time  |  max time  |%varavg| %total
---------------------------------------------------------------
Pair    | 17.111     | 18.91      | 20.885     |  25.9 | 62.09
Bond    | 0.0020398  | 0.0036942  | 0.0048473  |   1.3 |  0.01
Kspace  | 7.1097     | 9.0565     | 10.84      |  37.0 | 29.73
Neigh   | 0          | 0          | 0          |   0.0 |  0.00
Comm    | 1.251      | 1.2784     | 1.3144     |   1.7 |  4.20
Output  | 6.3966e-05 | 7.948e-05  | 0.000233   |   0.0 |  0.00
Modify  | 1.0248     | 1.0382     | 1.0578     |   1.0 |  3.41
Other   |            | 0.1712     |            |       |  0.56

Nlocal:            134 ave         138 max         129 min
Histogram: 1 0 2 1 2 1 1 0 2 2
Nghost:           4313 ave        4340 max        4277 min
Histogram: 1 2 0 1 1 2 0 1 0 4
Neighs:        49931.9 ave       55418 max       45861 min
Histogram: 3 0 2 0 2 2 1 0 1 1

Total # of neighbors = 599183
Ave neighs/atom = 372.62624
Ave special neighs/atom = 1.8656716
Neighbor list builds = 0
Dangerous builds = 0
PPPM initialization ...
  extracting TIP4P info from pair style
  using 12-bit tables for long-range coulomb (../kspace.cpp:342)
  G vector (1/distance) = 0.31041189
  grid = 24 24 24
  stencil order = 5
  estimated absolute RMS force accuracy = 0.0037564486
  estimated relative force accuracy = 1.1312433e-05
  using double precision KISS FFT
  3d grid and FFT values/proc = 5415 1152
Generated 0 of 6 mixed pair_coeff terms from arithmetic mixing rule
Setting up Verlet run ...
  Unit style    : real
  Current step  : 5010000
  Time step     : 0.01
Per MPI rank memory allocation (min/avg/max) = 8.661 | 8.667 | 8.67 Mbytes
   Step        Density          Temp          Press          TotEng    
   5010000   1.1142955      294.98706     -1974.7512     -13932.468    
   5020000   1.1142955      293.02558     -1051.4277     -13972.891    
Loop time of 29.9769 on 12 procs for 10000 steps with 1608 atoms

Performance: 0.288 ns/day, 83.269 hours/ns, 333.590 timesteps/s
94.6% CPU use with 12 MPI tasks x no OpenMP threads

MPI task timing breakdown:
Section |  min time  |  avg time  |  max time  |%varavg| %total
---------------------------------------------------------------
Pair    | 17.185     | 18.843     | 20.301     |  23.0 | 62.86
Bond    | 0.0020364  | 0.0037616  | 0.0046742  |   1.1 |  0.01
Kspace  | 7.184      | 8.6206     | 10.273     |  33.7 | 28.76
Neigh   | 0.0080967  | 0.0081016  | 0.008108   |   0.0 |  0.03
Comm    | 1.2316     | 1.264      | 1.2944     |   1.5 |  4.22
Output  | 6.3549e-05 | 7.9794e-05 | 0.00023616 |   0.0 |  0.00
Modify  | 1.0493     | 1.0641     | 1.0814     |   0.8 |  3.55
Other   |            | 0.1735     |            |       |  0.58

Nlocal:            134 ave         140 max         129 min
Histogram: 3 1 1 0 2 1 1 0 1 2
Nghost:        4336.33 ave        4380 max        4292 min
Histogram: 2 0 2 0 2 1 1 2 1 1
Neighs:        49933.3 ave       55882 max       45512 min
Histogram: 2 0 2 1 2 2 2 0 0 1

Total # of neighbors = 599200
Ave neighs/atom = 372.63682
Ave special neighs/atom = 1.8656716
Neighbor list builds = 4
Dangerous builds = 0
PPPM initialization ...
  extracting TIP4P info from pair style
  using 12-bit tables for long-range coulomb (../kspace.cpp:342)
  G vector (1/distance) = 0.31041189
  grid = 24 24 24
  stencil order = 5
  estimated absolute RMS force accuracy = 0.0037564486
  estimated relative force accuracy = 1.1312433e-05
  using double precision KISS FFT
  3d grid and FFT values/proc = 5415 1152
Generated 0 of 6 mixed pair_coeff terms from arithmetic mixing rule
Setting up Verlet run ...
  Unit style    : real
  Current step  : 5020000
  Time step     : 0.1
Per MPI rank memory allocation (min/avg/max) = 8.661 | 8.667 | 8.67 Mbytes
   Step        Density          Temp          Press          TotEng    
   5020000   1.1142955      293.02558     -1051.1075     -13972.891    
   5030000   1.1142955      286.89261     -418.46009     -14003.459    
Loop time of 30.9351 on 12 procs for 10000 steps with 1608 atoms

Performance: 2.793 ns/day, 8.593 hours/ns, 323.257 timesteps/s
93.2% CPU use with 12 MPI tasks x no OpenMP threads

MPI task timing breakdown:
Section |  min time  |  avg time  |  max time  |%varavg| %total
---------------------------------------------------------------
Pair    | 16.859     | 18.943     | 20.852     |  29.0 | 61.24
Bond    | 0.0019894  | 0.0038102  | 0.0048777  |   1.2 |  0.01
Kspace  | 7.4997     | 9.3679     | 11.417     |  40.6 | 30.28
Neigh   | 0.08119    | 0.081243   | 0.081283   |   0.0 |  0.26
Comm    | 1.2715     | 1.3076     | 1.3427     |   2.0 |  4.23
Output  | 6.3766e-05 | 7.9403e-05 | 0.00024127 |   0.0 |  0.00
Modify  | 1.0504     | 1.0611     | 1.0683     |   0.5 |  3.43
Other   |            | 0.17       |            |       |  0.55

Nlocal:            134 ave         142 max         119 min
Histogram: 1 0 0 1 1 2 1 0 3 3
Nghost:        4328.33 ave        4370 max        4286 min
Histogram: 2 1 1 1 1 1 1 2 0 2
Neighs:        49938.8 ave       55222 max       44451 min
Histogram: 3 1 1 1 0 1 0 1 0 4

Total # of neighbors = 599265
Ave neighs/atom = 372.67724
Ave special neighs/atom = 1.8656716
Neighbor list builds = 39
Dangerous builds = 0
PPPM initialization ...
  extracting TIP4P info from pair style
  using 12-bit tables for long-range coulomb (../kspace.cpp:342)
  G vector (1/distance) = 0.31041189
  grid = 24 24 24
  stencil order = 5
  estimated absolute RMS force accuracy = 0.0037564486
  estimated relative force accuracy = 1.1312433e-05
  using double precision KISS FFT
  3d grid and FFT values/proc = 5415 1152
Generated 0 of 6 mixed pair_coeff terms from arithmetic mixing rule
Setting up Verlet run ...
  Unit style    : real
  Current step  : 5030000
  Time step     : 0.2
Per MPI rank memory allocation (min/avg/max) = 8.661 | 8.667 | 8.67 Mbytes
   Step        Density          Temp          Press          TotEng    
   5030000   1.1142955      286.89261     -418.73117     -14003.459    
   5040000   1.1142955      299.93315      394.70215     -13981.832    
Loop time of 30.5913 on 12 procs for 10000 steps with 1608 atoms

Performance: 5.649 ns/day, 4.249 hours/ns, 326.890 timesteps/s
94.1% CPU use with 12 MPI tasks x no OpenMP threads

MPI task timing breakdown:
Section |  min time  |  avg time  |  max time  |%varavg| %total
---------------------------------------------------------------
Pair    | 17.016     | 18.999     | 20.495     |  25.9 | 62.11
Bond    | 0.0019904  | 0.0037905  | 0.0048124  |   1.1 |  0.01
Kspace  | 7.4044     | 8.8786     | 10.814     |  37.3 | 29.02
Neigh   | 0.16733    | 0.16742    | 0.16753    |   0.0 |  0.55
Comm    | 1.2762     | 1.3083     | 1.361      |   1.9 |  4.28
Output  | 6.45e-05   | 8.087e-05  | 0.00024316 |   0.0 |  0.00
Modify  | 1.0554     | 1.0621     | 1.0689     |   0.4 |  3.47
Other   |            | 0.1718     |            |       |  0.56

Nlocal:            134 ave         142 max         126 min
Histogram: 1 1 1 1 3 1 0 2 1 1
Nghost:        4334.17 ave        4381 max        4307 min
Histogram: 3 2 2 0 0 3 0 0 1 1
Neighs:        49930.8 ave       54926 max       45258 min
Histogram: 2 1 0 1 4 0 0 1 1 2

Total # of neighbors = 599169
Ave neighs/atom = 372.61754
Ave special neighs/atom = 1.8656716
Neighbor list builds = 81
Dangerous builds = 0
PPPM initialization ...
  extracting TIP4P info from pair style
  using 12-bit tables for long-range coulomb (../kspace.cpp:342)
  G vector (1/distance) = 0.31041189
  grid = 24 24 24
  stencil order = 5
  estimated absolute RMS force accuracy = 0.0037564486
  estimated relative force accuracy = 1.1312433e-05
  using double precision KISS FFT
  3d grid and FFT values/proc = 5415 1152
Generated 0 of 6 mixed pair_coeff terms from arithmetic mixing rule
Setting up Verlet run ...
  Unit style    : real
  Current step  : 5040000
  Time step     : 0.5
Per MPI rank memory allocation (min/avg/max) = 8.661 | 8.667 | 8.67 Mbytes
   Step        Density          Temp          Press          TotEng    
   5040000   1.1142955      299.93315      395.20112     -13981.832    
   5050000   1.1142955      313.97694     -147.22801     -13915.457    
Loop time of 31.1881 on 12 procs for 10000 steps with 1608 atoms

Performance: 13.851 ns/day, 1.733 hours/ns, 320.635 timesteps/s
94.3% CPU use with 12 MPI tasks x no OpenMP threads

MPI task timing breakdown:
Section |  min time  |  avg time  |  max time  |%varavg| %total
---------------------------------------------------------------
Pair    | 17.587     | 19.167     | 20.411     |  21.4 | 61.46
Bond    | 0.0019931  | 0.0037588  | 0.0046077  |   1.1 |  0.01
Kspace  | 7.7817     | 9.0045     | 10.566     |  30.8 | 28.87
Neigh   | 0.42298    | 0.42312    | 0.42327    |   0.0 |  1.36
Comm    | 1.3039     | 1.3352     | 1.3598     |   1.6 |  4.28
Output  | 6.5249e-05 | 8.1309e-05 | 0.00024612 |   0.0 |  0.00
Modify  | 1.0731     | 1.0833     | 1.0931     |   0.5 |  3.47
Other   |            | 0.1713     |            |       |  0.55

Nlocal:            134 ave         142 max         126 min
Histogram: 1 3 0 1 1 0 2 1 2 1
Nghost:        4292.17 ave        4372 max        4229 min
Histogram: 1 1 2 1 2 2 1 1 0 1
Neighs:        49918.1 ave       55594 max       45534 min
Histogram: 2 0 2 1 4 1 0 0 0 2

Total # of neighbors = 599017
Ave neighs/atom = 372.52301
Ave special neighs/atom = 1.8656716
Neighbor list builds = 204
Dangerous builds = 0
PPPM initialization ...
  extracting TIP4P info from pair style
  using 12-bit tables for long-range coulomb (../kspace.cpp:342)
  G vector (1/distance) = 0.31041189
  grid = 24 24 24
  stencil order = 5
  estimated absolute RMS force accuracy = 0.0037564486
  estimated relative force accuracy = 1.1312433e-05
  using double precision KISS FFT
  3d grid and FFT values/proc = 5415 1152
Generated 0 of 6 mixed pair_coeff terms from arithmetic mixing rule
Setting up Verlet run ...
  Unit style    : real
  Current step  : 5050000
  Time step     : 2
Per MPI rank memory allocation (min/avg/max) = 8.661 | 8.667 | 8.67 Mbytes
   Step        Density          Temp          Press          TotEng    
   5050000   1.1142955      313.97694     -158.03305     -13915.457    
   5100000   1.1142955      282.0617      -68.266692     -13991.999    
   5200000   1.1142955      301.2066      -170.97926     -13898.823    
   5300000   1.1142955      297.3913      -674.28115     -13917.161    
   5400000   1.1142955      300.84415     -358.47684     -13879.751    
   5500000   1.1142955      300.32576      102.59107     -13925.714    
   5600000   1.1142955      296.84612     -1301.7486     -13972.494    
   5700000   1.1142955      282.03646     -525.97361     -13984.484    
   5800000   1.1142955      308.72903      111.81052     -13824.9      
   5900000   1.1142955      289.91537     -660.57917     -13880.189    
   6000000   1.1142955      294.21232      176.2378      -13891.468    
   6100000   1.1142955      300.0891       273.11799     -13883.55     
   6200000   1.1142955      297.71398      332.63678     -13906.689    
   6300000   1.1142955      303.13076     -471.96034     -13871.074    
   6400000   1.1142955      304.17312     -523.26859     -13878.616    
   6500000   1.1142955      296.84758     -518.24215     -13860.305    
   6600000   1.1142955      310.17176      70.484312     -13925.373    
   6700000   1.1142955      290.86424     -583.39639     -13965.965    
   6800000   1.1142955      302.30055     -369.38268     -13882.549    
   6900000   1.1142955      295.63769     -346.76149     -13918.736    
   7000000   1.1142955      305.45695      1486.9857     -13886.943    
   7100000   1.1142955      295.43726     -32.083371     -13952.731    
   7200000   1.1142955      300.14451      28.639163     -13939.808    
   7300000   1.1142955      294.57872     -653.59605     -13911.225    
   7400000   1.1142955      296.70625      192.00271     -13929.271    
   7500000   1.1142955      292.25899      856.52785     -13885.286    
   7550000   1.1142955      312.29935     -256.03963     -13889.007    
Loop time of 8282.11 on 12 procs for 2500000 steps with 1608 atoms

Performance: 52.161 ns/day, 0.460 hours/ns, 301.855 timesteps/s
94.1% CPU use with 12 MPI tasks x no OpenMP threads

MPI task timing breakdown:
Section |  min time  |  avg time  |  max time  |%varavg| %total
---------------------------------------------------------------
Pair    | 4591.1     | 4884.8     | 5075.7     | 284.0 | 58.98
Bond    | 0.50684    | 0.94798    | 1.1869     |  18.5 |  0.01
Kspace  | 2089.4     | 2281.6     | 2576.9     | 413.7 | 27.55
Neigh   | 422.1      | 422.22     | 422.31     |   0.4 |  5.10
Comm    | 364.01     | 367.4      | 373.33     |  14.5 |  4.44
Output  | 0.11102    | 0.11132    | 0.11423    |   0.3 |  0.00
Modify  | 279.72     | 281.61     | 284.52     |   7.4 |  3.40
Other   |            | 43.38      |            |       |  0.52

Nlocal:            134 ave         147 max         123 min
Histogram: 1 0 3 2 0 2 2 1 0 1
Nghost:        4318.67 ave        4368 max        4251 min
Histogram: 1 0 1 2 1 1 1 1 1 3
Neighs:        49927.5 ave       54197 max       46417 min
Histogram: 3 0 1 0 3 2 1 0 0 2

Total # of neighbors = 599130
Ave neighs/atom = 372.59328
Ave special neighs/atom = 1.8656716
Neighbor list builds = 198973
Dangerous builds = 0

CITE-CITE-CITE-CITE-CITE-CITE-CITE-CITE-CITE-CITE-CITE-CITE-CITE

Your simulation uses code contributions which should be cited:
- fix ave/ordern command:
The log file lists these citations in BibTeX format.

CITE-CITE-CITE-CITE-CITE-CITE-CITE-CITE-CITE-CITE-CITE-CITE-CITE

PPPM initialization ...
  extracting TIP4P info from pair style
  using 12-bit tables for long-range coulomb (../kspace.cpp:342)
  G vector (1/distance) = 0.31041189
  grid = 24 24 24
  stencil order = 5
  estimated absolute RMS force accuracy = 0.0037564486
  estimated relative force accuracy = 1.1312433e-05
  using double precision KISS FFT
  3d grid and FFT values/proc = 5415 1152
Generated 0 of 6 mixed pair_coeff terms from arithmetic mixing rule
Setting up Verlet run ...
  Unit style    : real
  Current step  : 0
  Time step     : 2
Per MPI rank memory allocation (min/avg/max) = 14.4 | 14.41 | 14.41 Mbytes
   Step        Density          Temp          Press          TotEng    
         0   1.1142955      312.29935     -256.19624     -13889.007    
    100000   1.1142955      300.92877     -135.68159     -13906.986    
    200000   1.1142955      296.0295      -1203.6387     -13952.56     
    250000   1.1142955      301.4009       718.68675     -13953.942    
Loop time of 1307.83 on 12 procs for 250000 steps with 1608 atoms

Performance: 33.032 ns/day, 0.727 hours/ns, 191.156 timesteps/s
93.8% CPU use with 12 MPI tasks x no OpenMP threads

MPI task timing breakdown:
Section |  min time  |  avg time  |  max time  |%varavg| %total
---------------------------------------------------------------
Pair    | 741.8      | 795.33     | 829.72     | 121.1 | 60.81
Bond    | 3.4507     | 3.5868     | 3.7383     |   5.0 |  0.27
Kspace  | 311.5      | 346.1      | 399.44     | 184.3 | 26.46
Neigh   | 42.247     | 42.273     | 42.291     |   0.2 |  3.23
Comm    | 37.817     | 38.223     | 38.648     |   4.2 |  2.92
Output  | 0.073268   | 0.073737   | 0.074345   |   0.1 |  0.01
Modify  | 77.039     | 77.289     | 77.524     |   1.5 |  5.91
Other   |            | 4.959      |            |       |  0.38

Nlocal:            134 ave         140 max         124 min
Histogram: 1 0 0 0 2 3 1 1 2 2
Nghost:        4286.75 ave        4309 max        4258 min
Histogram: 1 0 1 3 0 2 1 0 1 3
Neighs:          49928 ave       53824 max       45698 min
Histogram: 1 2 1 1 0 1 2 0 3 1

Total # of neighbors = 599136
Ave neighs/atom = 372.59701
Ave special neighs/atom = 1.8656716
Neighbor list builds = 19913
Dangerous builds = 0
PPPM initialization ...
  extracting TIP4P info from pair style
  using 12-bit tables for long-range coulomb (../kspace.cpp:342)
  G vector (1/distance) = 0.31041189
  grid = 24 24 24
  stencil order = 5
  estimated absolute RMS force accuracy = 0.0037564486
  estimated relative force accuracy = 1.1312433e-05
  using double precision KISS FFT
  3d grid and FFT values/proc = 5415 1152
Generated 0 of 6 mixed pair_coeff terms from arithmetic mixing rule
Setting up Verlet run ...
  Unit style    : real
  Current step  : 250000
  Time step     : 2
Per MPI rank memory allocation (min/avg/max) = 14.4 | 14.41 | 14.41 Mbytes
   Step        Density          Temp          Press          TotEng    
    250000   1.1142955      301.4009       718.51494     -13953.942    
    300000   1.1142955      298.19733      643.87247     -13904.775    
    400000   1.1142955      295.09557      258.36423     -13853.503    
    500000   1.1142955      298.11605     -580.63217     -13877.314    
Loop time of 1306.95 on 12 procs for 250000 steps with 1608 atoms

Performance: 33.054 ns/day, 0.726 hours/ns, 191.285 timesteps/s
93.9% CPU use with 12 MPI tasks x no OpenMP threads

MPI task timing breakdown:
Section |  min time  |  avg time  |  max time  |%varavg| %total
---------------------------------------------------------------
Pair    | 736.35     | 796.62     | 841.8      | 123.5 | 60.95
Bond    | 3.4274     | 3.5915     | 3.7447     |   5.6 |  0.27
Kspace  | 298.55     | 343.63     | 403.73     | 188.6 | 26.29
Neigh   | 42.367     | 42.389     | 42.414     |   0.2 |  3.24
Comm    | 37.955     | 38.259     | 38.707     |   3.9 |  2.93
Output  | 0.10675    | 0.10716    | 0.1077     |   0.1 |  0.01
Modify  | 77.094     | 77.425     | 77.707     |   1.9 |  5.92
Other   |            | 4.94       |            |       |  0.38

Nlocal:            134 ave         145 max         119 min
Histogram: 1 1 0 2 1 1 1 2 1 2
Nghost:        4314.75 ave        4341 max        4284 min
Histogram: 2 0 0 1 3 2 0 1 1 2
Neighs:        49937.4 ave       57866 max       44563 min
Histogram: 2 1 1 0 4 3 0 0 0 1

Total # of neighbors = 599249
Ave neighs/atom = 372.66729
Ave special neighs/atom = 1.8656716
Neighbor list builds = 19900
Dangerous builds = 0
PPPM initialization ...
  extracting TIP4P info from pair style
  using 12-bit tables for long-range coulomb (../kspace.cpp:342)
  G vector (1/distance) = 0.31041189
  grid = 24 24 24
  stencil order = 5
  estimated absolute RMS force accuracy = 0.0037564486
  estimated relative force accuracy = 1.1312433e-05
  using double precision KISS FFT
  3d grid and FFT values/proc = 5415 1152
Generated 0 of 6 mixed pair_coeff terms from arithmetic mixing rule
Setting up Verlet run ...
  Unit style    : real
  Current step  : 500000
  Time step     : 2
Per MPI rank memory allocation (min/avg/max) = 14.4 | 14.41 | 14.41 Mbytes
   Step        Density          Temp          Press          TotEng    
    500000   1.1142955      298.11605     -581.40668     -13877.314    
    600000   1.1142955      293.3027      -1358.564      -13862.447    
    700000   1.1142955      300.66559     -609.68564     -13871.984    
    750000   1.1142955      298.16784      441.98917     -13912.981    
Loop time of 1312.96 on 12 procs for 250000 steps with 1608 atoms

Performance: 32.903 ns/day, 0.729 hours/ns, 190.410 timesteps/s
93.5% CPU use with 12 MPI tasks x no OpenMP threads

MPI task timing breakdown:
Section |  min time  |  avg time  |  max time  |%varavg| %total
---------------------------------------------------------------
Pair    | 734.52     | 793.77     | 850.49     | 139.2 | 60.46
Bond    | 3.4134     | 3.5769     | 3.7399     |   6.0 |  0.27
Kspace  | 296.37     | 352.92     | 412.53     | 209.6 | 26.88
Neigh   | 42.192     | 42.21      | 42.23      |   0.2 |  3.21
Comm    | 37.844     | 38.186     | 38.613     |   3.9 |  2.91
Output  | 0.071696   | 0.072536   | 0.073083   |   0.1 |  0.01
Modify  | 76.969     | 77.242     | 77.453     |   1.4 |  5.88
Other   |            | 4.98       |            |       |  0.38

Nlocal:            134 ave         147 max         121 min
Histogram: 3 1 0 1 0 0 3 0 3 1
Nghost:        4283.92 ave        4351 max        4258 min
Histogram: 4 1 3 2 0 1 0 0 0 1
Neighs:        49914.6 ave       56425 max       43964 min
Histogram: 3 1 0 0 1 3 1 0 2 1

Total # of neighbors = 598975
Ave neighs/atom = 372.49689
Ave special neighs/atom = 1.8656716
Neighbor list builds = 19841
Dangerous builds = 0
PPPM initialization ...
  extracting TIP4P info from pair style
  using 12-bit tables for long-range coulomb (../kspace.cpp:342)
  G vector (1/distance) = 0.31041189
  grid = 24 24 24
  stencil order = 5
  estimated absolute RMS force accuracy = 0.0037564486
  estimated relative force accuracy = 1.1312433e-05
  using double precision KISS FFT
  3d grid and FFT values/proc = 5415 1152
Generated 0 of 6 mixed pair_coeff terms from arithmetic mixing rule
Setting up Verlet run ...
  Unit style    : real
  Current step  : 750000
  Time step     : 2
Per MPI rank memory allocation (min/avg/max) = 14.4 | 14.41 | 14.41 Mbytes
   Step        Density          Temp          Press          TotEng    
    750000   1.1142955      298.16784      442.18914     -13912.981    
    800000   1.1142955      298.83339      266.29107     -13934.552    
    900000   1.1142955      290.56369     -283.73773     -13846.283    
   1000000   1.1142955      287.45108     -586.22285     -13928.786    
Loop time of 1304.96 on 12 procs for 250000 steps with 1608 atoms

Performance: 33.104 ns/day, 0.725 hours/ns, 191.576 timesteps/s
93.8% CPU use with 12 MPI tasks x no OpenMP threads

MPI task timing breakdown:
Section |  min time  |  avg time  |  max time  |%varavg| %total
---------------------------------------------------------------
Pair    | 731.13     | 793.24     | 845.15     | 132.3 | 60.79
Bond    | 3.419      | 3.5778     | 3.7292     |   5.2 |  0.27
Kspace  | 293.05     | 345.21     | 407.18     | 201.3 | 26.45
Neigh   | 42.378     | 42.402     | 42.423     |   0.2 |  3.25
Comm    | 37.919     | 38.266     | 38.683     |   3.7 |  2.93
Output  | 0.10693    | 0.10744    | 0.1078     |   0.1 |  0.01
Modify  | 76.898     | 77.192     | 77.419     |   1.4 |  5.92
Other   |            | 4.968      |            |       |  0.38

Nlocal:            134 ave         144 max         124 min
Histogram: 1 0 2 1 1 2 2 1 1 1
Nghost:        4309.83 ave        4356 max        4276 min
Histogram: 3 1 1 1 2 0 1 0 1 2
Neighs:        49940.4 ave       54103 max       43482 min
Histogram: 1 1 1 0 0 3 0 1 2 3

Total # of neighbors = 599285
Ave neighs/atom = 372.68968
Ave special neighs/atom = 1.8656716
Neighbor list builds = 19910
Dangerous builds = 0
PPPM initialization ...
  extracting TIP4P info from pair style
  using 12-bit tables for long-range coulomb (../kspace.cpp:342)
  G vector (1/distance) = 0.31041189
  grid = 24 24 24
  stencil order = 5
  estimated absolute RMS force accuracy = 0.0037564486
  estimated relative force accuracy = 1.1312433e-05
  using double precision KISS FFT
  3d grid and FFT values/proc = 5415 1152
Generated 0 of 6 mixed pair_coeff terms from arithmetic mixing rule
Setting up Verlet run ...
  Unit style    : real
  Current step  : 1000000
  Time step     : 2
Per MPI rank memory allocation (min/avg/max) = 14.4 | 14.41 | 14.41 Mbytes
   Step        Density          Temp          Press          TotEng    
   1000000   1.1142955      287.45108     -586.0034      -13928.786    
   1100000   1.1142955      299.50464      621.72378     -13910.339    
   1200000   1.1142955      295.16871     -208.03123     -14014.025    
   1250000   1.1142955      298.79831     -1262.7948     -13899.882    
Loop time of 1314.17 on 12 procs for 250000 steps with 1608 atoms

Performance: 32.873 ns/day, 0.730 hours/ns, 190.235 timesteps/s
93.6% CPU use with 12 MPI tasks x no OpenMP threads

MPI task timing breakdown:
Section |  min time  |  avg time  |  max time  |%varavg| %total
---------------------------------------------------------------
Pair    | 733.3      | 794.13     | 842.01     | 139.5 | 60.43
Bond    | 3.407      | 3.5733     | 3.7451     |   5.9 |  0.27
Kspace  | 305.74     | 353.46     | 414.12     | 209.8 | 26.90
Neigh   | 42.375     | 42.399     | 42.416     |   0.2 |  3.23
Comm    | 37.941     | 38.259     | 38.709     |   3.9 |  2.91
Output  | 0.071205   | 0.072225   | 0.072711   |   0.1 |  0.01
Modify  | 76.961     | 77.286     | 77.482     |   1.5 |  5.88
Other   |            | 4.978      |            |       |  0.38

Nlocal:            134 ave         146 max         125 min
Histogram: 2 3 0 1 2 0 1 1 0 2
Nghost:        4311.33 ave        4363 max        4261 min
Histogram: 1 2 1 1 0 2 3 0 0 2
Neighs:          49918 ave       56955 max       43677 min
Histogram: 1 1 1 0 4 2 2 0 0 1

Total # of neighbors = 599016
Ave neighs/atom = 372.52239
Ave special neighs/atom = 1.8656716
Neighbor list builds = 19901
Dangerous builds = 0
PPPM initialization ...
  extracting TIP4P info from pair style
  using 12-bit tables for long-range coulomb (../kspace.cpp:342)
  G vector (1/distance) = 0.31041189
  grid = 24 24 24
  stencil order = 5
  estimated absolute RMS force accuracy = 0.0037564486
  estimated relative force accuracy = 1.1312433e-05
  using double precision KISS FFT
  3d grid and FFT values/proc = 5415 1152
Generated 0 of 6 mixed pair_coeff terms from arithmetic mixing rule
Setting up Verlet run ...
  Unit style    : real
  Current step  : 1250000
  Time step     : 2
Per MPI rank memory allocation (min/avg/max) = 14.4 | 14.41 | 14.41 Mbytes
   Step        Density          Temp          Press          TotEng    
   1250000   1.1142955      298.79831     -1262.7022     -13899.882    
   1300000   1.1142955      303.37465      86.619645     -13905.075    
   1400000   1.1142955      302.7476      -283.61602     -13911.691    
   1500000   1.1142955      303.82327      168.68517     -13858.977    
Loop time of 1304.3 on 12 procs for 250000 steps with 1608 atoms

Performance: 33.121 ns/day, 0.725 hours/ns, 191.674 timesteps/s
94.0% CPU use with 12 MPI tasks x no OpenMP threads

MPI task timing breakdown:
Section |  min time  |  avg time  |  max time  |%varavg| %total
---------------------------------------------------------------
Pair    | 735.16     | 795.78     | 837.42     | 126.2 | 61.01
Bond    | 3.4382     | 3.5867     | 3.7387     |   5.4 |  0.27
Kspace  | 300.85     | 342.4      | 403.48     | 193.1 | 26.25
Neigh   | 42.196     | 42.215     | 42.231     |   0.2 |  3.24
Comm    | 37.8       | 38.185     | 38.597     |   4.0 |  2.93
Output  | 0.10691    | 0.10722    | 0.10765    |   0.1 |  0.01
Modify  | 76.791     | 77.075     | 77.307     |   1.5 |  5.91
Other   |            | 4.954      |            |       |  0.38

Nlocal:            134 ave         144 max         124 min
Histogram: 1 1 2 1 0 2 0 3 1 1
Nghost:           4295 ave        4339 max        4214 min
Histogram: 1 0 1 2 0 0 1 2 1 4
Neighs:        49945.7 ave       54612 max       45186 min
Histogram: 2 0 1 0 3 1 1 2 1 1

Total # of neighbors = 599348
Ave neighs/atom = 372.72886
Ave special neighs/atom = 1.8656716
Neighbor list builds = 19892
Dangerous builds = 0
PPPM initialization ...
  extracting TIP4P info from pair style
  using 12-bit tables for long-range coulomb (../kspace.cpp:342)
  G vector (1/distance) = 0.31041189
  grid = 24 24 24
  stencil order = 5
  estimated absolute RMS force accuracy = 0.0037564486
  estimated relative force accuracy = 1.1312433e-05
  using double precision KISS FFT
  3d grid and FFT values/proc = 5415 1152
Generated 0 of 6 mixed pair_coeff terms from arithmetic mixing rule
Setting up Verlet run ...
  Unit style    : real
  Current step  : 1500000
  Time step     : 2
Per MPI rank memory allocation (min/avg/max) = 14.4 | 14.41 | 14.41 Mbytes
   Step        Density          Temp          Press          TotEng    
   1500000   1.1142955      303.82327      168.29892     -13858.977    
   1600000   1.1142955      292.08626      1157.853      -13901.75     
   1700000   1.1142955      303.5129       448.16904     -13845.788    
   1750000   1.1142955      302.02031     -321.39124     -13953.269    
Loop time of 1308.09 on 12 procs for 250000 steps with 1608 atoms

Performance: 33.025 ns/day, 0.727 hours/ns, 191.118 timesteps/s
93.8% CPU use with 12 MPI tasks x no OpenMP threads

MPI task timing breakdown:
Section |  min time  |  avg time  |  max time  |%varavg| %total
---------------------------------------------------------------
Pair    | 743.36     | 794.55     | 832.6      | 113.9 | 60.74
Bond    | 3.445      | 3.5991     | 3.7615     |   5.9 |  0.28
Kspace  | 309.09     | 347        | 398.07     | 173.0 | 26.53
Neigh   | 42.341     | 42.357     | 42.368     |   0.1 |  3.24
Comm    | 37.895     | 38.243     | 38.618     |   3.6 |  2.92
Output  | 0.071152   | 0.072159   | 0.072713   |   0.1 |  0.01
Modify  | 77.022     | 77.322     | 77.558     |   1.5 |  5.91
Other   |            | 4.949      |            |       |  0.38

Nlocal:            134 ave         144 max         122 min
Histogram: 2 1 0 0 1 3 0 1 3 1
Nghost:        4313.08 ave        4371 max        4253 min
Histogram: 2 0 0 4 1 0 2 0 2 1
Neighs:        49944.5 ave       56344 max       44543 min
Histogram: 1 1 2 0 3 2 1 1 0 1

Total # of neighbors = 599334
Ave neighs/atom = 372.72015
Ave special neighs/atom = 1.8656716
Neighbor list builds = 19900
Dangerous builds = 0
PPPM initialization ...
  extracting TIP4P info from pair style
  using 12-bit tables for long-range coulomb (../kspace.cpp:342)
  G vector (1/distance) = 0.31041189
  grid = 24 24 24
  stencil order = 5
  estimated absolute RMS force accuracy = 0.0037564486
  estimated relative force accuracy = 1.1312433e-05
  using double precision KISS FFT
  3d grid and FFT values/proc = 5415 1152
Generated 0 of 6 mixed pair_coeff terms from arithmetic mixing rule
Setting up Verlet run ...
  Unit style    : real
  Current step  : 1750000
  Time step     : 2
Per MPI rank memory allocation (min/avg/max) = 14.4 | 14.41 | 14.41 Mbytes
   Step        Density          Temp          Press          TotEng    
   1750000   1.1142955      302.02031     -321.54573     -13953.269    
   1800000   1.1142955      298.2928       364.00076     -13871.465    
   1900000   1.1142955      305.9033       216.69504     -13927.947    
   2000000   1.1142955      308.42802      912.62179     -13862.588    
Loop time of 1304.88 on 12 procs for 250000 steps with 1608 atoms

Performance: 33.107 ns/day, 0.725 hours/ns, 191.589 timesteps/s
93.8% CPU use with 12 MPI tasks x no OpenMP threads

MPI task timing breakdown:
Section |  min time  |  avg time  |  max time  |%varavg| %total
---------------------------------------------------------------
Pair    | 729.02     | 791.51     | 839.81     | 132.1 | 60.66
Bond    | 3.3934     | 3.5801     | 3.7365     |   5.8 |  0.27
Kspace  | 298.92     | 347.09     | 410        | 200.3 | 26.60
Neigh   | 42.266     | 42.285     | 42.305     |   0.2 |  3.24
Comm    | 37.875     | 38.237     | 38.647     |   4.0 |  2.93
Output  | 0.10686    | 0.10729    | 0.1076     |   0.1 |  0.01
Modify  | 76.782     | 77.096     | 77.325     |   1.5 |  5.91
Other   |            | 4.967      |            |       |  0.38

Nlocal:            134 ave         143 max         126 min
Histogram: 1 1 1 1 3 3 0 0 1 1
Nghost:        4278.67 ave        4342 max        4236 min
Histogram: 1 1 4 1 1 2 1 0 0 1
Neighs:        49925.6 ave       54234 max       42714 min
Histogram: 1 0 0 1 2 2 2 1 0 3

Total # of neighbors = 599107
Ave neighs/atom = 372.57898
Ave special neighs/atom = 1.8656716
Neighbor list builds = 19914
Dangerous builds = 0
PPPM initialization ...
  extracting TIP4P info from pair style
  using 12-bit tables for long-range coulomb (../kspace.cpp:342)
  G vector (1/distance) = 0.31041189
  grid = 24 24 24
  stencil order = 5
  estimated absolute RMS force accuracy = 0.0037564486
  estimated relative force accuracy = 1.1312433e-05
  using double precision KISS FFT
  3d grid and FFT values/proc = 5415 1152
Generated 0 of 6 mixed pair_coeff terms from arithmetic mixing rule
Setting up Verlet run ...
  Unit style    : real
  Current step  : 2000000
  Time step     : 2
Per MPI rank memory allocation (min/avg/max) = 14.4 | 14.41 | 14.41 Mbytes
   Step        Density          Temp          Press          TotEng    
   2000000   1.1142955      308.42802      912.11549     -13862.588    
   2100000   1.1142955      312.55268      38.957166     -13860.188    
   2200000   1.1142955      293.77939     -213.02357     -13874.637    
   2300000   1.1142955      294.15866      419.05501     -14015.743    
   2400000   1.1142955      306.38118      312.21212     -13923.512    
   2500000   1.1142955      301.23005      411.58315     -13881        
   2600000   1.1142955      308.4262       761.3238      -13831.623    
   2700000   1.1142955      296.38258     -534.11998     -13950.319    
   2800000   1.1142955      295.19184     -586.23499     -13953.605    
   2900000   1.1142955      302.74507     -80.58504      -13883.899    
   3000000   1.1142955      298.10506      402.86721     -13930.124    
Loop time of 5244.7 on 12 procs for 1000000 steps with 1608 atoms

Performance: 32.948 ns/day, 0.728 hours/ns, 190.669 timesteps/s
93.6% CPU use with 12 MPI tasks x no OpenMP threads

MPI task timing breakdown:
Section |  min time  |  avg time  |  max time  |%varavg| %total
---------------------------------------------------------------
Pair    | 2947.1     | 3174.7     | 3369.5     | 255.1 | 60.53
Bond    | 13.65      | 14.33      | 14.99      |  11.5 |  0.27
Kspace  | 1209.6     | 1403.8     | 1630.7     | 384.9 | 26.77
Neigh   | 169.4      | 169.48     | 169.53     |   0.3 |  3.23
Comm    | 151.54     | 152.95     | 154.66     |   7.8 |  2.92
Output  | 0.35591    | 0.35846    | 0.35993    |   0.2 |  0.01
Modify  | 308.02     | 309.19     | 310.13     |   2.9 |  5.90
Other   |            | 19.87      |            |       |  0.38

Nlocal:            134 ave         145 max         130 min
Histogram: 5 1 3 0 0 0 2 0 0 1
Nghost:        4300.75 ave        4327 max        4246 min
Histogram: 1 0 0 0 2 1 2 2 0 4
Neighs:        49907.5 ave       55997 max       44957 min
Histogram: 2 2 0 2 1 1 0 2 0 2

Total # of neighbors = 598890
Ave neighs/atom = 372.44403
Ave special neighs/atom = 1.8656716
Neighbor list builds = 79592
Dangerous builds = 0
PPPM initialization ...
  extracting TIP4P info from pair style
  using 12-bit tables for long-range coulomb (../kspace.cpp:342)
  G vector (1/distance) = 0.31041189
  grid = 24 24 24
  stencil order = 5
  estimated absolute RMS force accuracy = 0.0037564486
  estimated relative force accuracy = 1.1312433e-05
  using double precision KISS FFT
  3d grid and FFT values/proc = 5415 1152
Generated 0 of 6 mixed pair_coeff terms from arithmetic mixing rule
Setting up Verlet run ...
  Unit style    : real
  Current step  : 3000000
  Time step     : 2
Per MPI rank memory allocation (min/avg/max) = 14.4 | 14.41 | 14.41 Mbytes
   Step        Density          Temp          Press          TotEng    
   3000000   1.1142955      298.10506      403.0629      -13930.124    
   3100000   1.1142955      293.20924      114.80049     -13914.465    
   3200000   1.1142955      302.0007      -15.457979     -13925.771    
   3300000   1.1142955      294.54986      216.60233     -13951.88     
   3400000   1.1142955      290.93805      780.59642     -13910.605    
   3500000   1.1142955      297.40629     -1152.6326     -13892.827    
   3600000   1.1142955      289.24225     -1316.8919     -13952.689    
   3700000   1.1142955      303.63442     -324.59352     -13947.174    
   3800000   1.1142955      282.88743      343.9958      -13971.884    
   3900000   1.1142955      308.57396     -645.8503      -13834.423    
   4000000   1.1142955      303.95018     -0.57208267    -13929.224    
Loop time of 5209.96 on 12 procs for 1000000 steps with 1608 atoms

Performance: 33.167 ns/day, 0.724 hours/ns, 191.940 timesteps/s
93.9% CPU use with 12 MPI tasks x no OpenMP threads

MPI task timing breakdown:
Section |  min time  |  avg time  |  max time  |%varavg| %total
---------------------------------------------------------------
Pair    | 2930.2     | 3171.6     | 3339.1     | 260.1 | 60.88
Bond    | 13.623     | 14.309     | 14.93      |  11.4 |  0.27
Kspace  | 1206.4     | 1373.4     | 1616.4     | 396.8 | 26.36
Neigh   | 169.23     | 169.31     | 169.38     |   0.4 |  3.25
Comm    | 151.57     | 152.91     | 154.61     |   7.9 |  2.94
Output  | 0.35606    | 0.35815    | 0.35907    |   0.1 |  0.01
Modify  | 307.05     | 308.27     | 309.19     |   3.1 |  5.92
Other   |            | 19.84      |            |       |  0.38

Nlocal:            134 ave         146 max         122 min
Histogram: 1 0 0 3 3 2 0 2 0 1
Nghost:        4310.25 ave        4375 max        4259 min
Histogram: 4 0 0 2 1 1 1 1 0 2
Neighs:        49963.3 ave       54659 max       46195 min
Histogram: 1 4 0 0 1 2 1 1 1 1

Total # of neighbors = 599560
Ave neighs/atom = 372.8607
Ave special neighs/atom = 1.8656716
Neighbor list builds = 79614
Dangerous builds = 0
PPPM initialization ...
  extracting TIP4P info from pair style
  using 12-bit tables for long-range coulomb (../kspace.cpp:342)
  G vector (1/distance) = 0.31041189
  grid = 24 24 24
  stencil order = 5
  estimated absolute RMS force accuracy = 0.0037564486
  estimated relative force accuracy = 1.1312433e-05
  using double precision KISS FFT
  3d grid and FFT values/proc = 5415 1152
Generated 0 of 6 mixed pair_coeff terms from arithmetic mixing rule
Setting up Verlet run ...
  Unit style    : real
  Current step  : 4000000
  Time step     : 2
Per MPI rank memory allocation (min/avg/max) = 14.4 | 14.41 | 14.41 Mbytes
   Step        Density          Temp          Press          TotEng    
   4000000   1.1142955      303.95018     -1.5684541     -13929.224    
   4100000   1.1142955      299.6463       738.41436     -13950.02     
   4200000   1.1142955      309.24892      571.48688     -13924.297    
   4300000   1.1142955      290.92619     -650.27709     -14013.907    
   4400000   1.1142955      298.35604      405.15452     -13942.901    
   4500000   1.1142955      295.70191      130.04775     -13878.659    
   4600000   1.1142955      296.71788      235.70866     -13911.333    
   4700000   1.1142955      290.1784      -2.9856461     -13908.388    
   4800000   1.1142955      304.44519      353.48689     -13874.731    
   4900000   1.1142955      293.53944      112.66661     -13961.17     
   5000000   1.1142955      299.60287     -68.007807     -13963.061    
Loop time of 5243.68 on 12 procs for 1000000 steps with 1608 atoms

Performance: 32.954 ns/day, 0.728 hours/ns, 190.706 timesteps/s
93.7% CPU use with 12 MPI tasks x no OpenMP threads

MPI task timing breakdown:
Section |  min time  |  avg time  |  max time  |%varavg| %total
---------------------------------------------------------------
Pair    | 2932.7     | 3182.5     | 3364.7     | 250.3 | 60.69
Bond    | 13.658     | 14.347     | 14.973     |  11.7 |  0.27
Kspace  | 1214.4     | 1396.2     | 1645.6     | 379.1 | 26.63
Neigh   | 169.04     | 169.11     | 169.16     |   0.3 |  3.23
Comm    | 151.7      | 153.02     | 154.66     |   7.3 |  2.92
Output  | 0.35523    | 0.35796    | 0.35898    |   0.2 |  0.01
Modify  | 306.94     | 308.21     | 309.27     |   3.3 |  5.88
Other   |            | 19.93      |            |       |  0.38

Nlocal:            134 ave         141 max         127 min
Histogram: 2 1 0 1 1 3 0 2 1 1
Nghost:        4291.67 ave        4343 max        4256 min
Histogram: 2 1 1 1 4 0 2 0 0 1
Neighs:        49957.5 ave       55041 max       45413 min
Histogram: 2 0 1 1 3 0 1 3 0 1

Total # of neighbors = 599490
Ave neighs/atom = 372.81716
Ave special neighs/atom = 1.8656716
Neighbor list builds = 79534
Dangerous builds = 0
PPPM initialization ...
  extracting TIP4P info from pair style
  using 12-bit tables for long-range coulomb (../kspace.cpp:342)
  G vector (1/distance) = 0.31041189
  grid = 24 24 24
  stencil order = 5
  estimated absolute RMS force accuracy = 0.0037564486
  estimated relative force accuracy = 1.1312433e-05
  using double precision KISS FFT
  3d grid and FFT values/proc = 5415 1152
Generated 0 of 6 mixed pair_coeff terms from arithmetic mixing rule
Setting up Verlet run ...
  Unit style    : real
  Current step  : 5000000
  Time step     : 2
Per MPI rank memory allocation (min/avg/max) = 14.4 | 14.41 | 14.41 Mbytes
   Step        Density          Temp          Press          TotEng    
   5000000   1.1142955      299.60287     -67.293067     -13963.061    
   5100000   1.1142955      301.71051     -576.93382     -13876.268    
   5200000   1.1142955      286.9273      -123.17648     -13958.048    
   5300000   1.1142955      303.16546      381.24488     -13856.481    
   5400000   1.1142955      291.73768     -8.4564057     -13930.761    
   5500000   1.1142955      301.13425      332.06216     -13937.597    
   5600000   1.1142955      307.97854     -210.58208     -13891.349    
   5700000   1.1142955      293.34907     -1090.1274     -13957.677    
   5800000   1.1142955      298.17986      755.78586     -13916.535    
   5900000   1.1142955      304.37446     -747.73484     -13889.667    
   6000000   1.1142955      312.21301     -371.95392     -13923.556    
Loop time of 5219.17 on 12 procs for 1000000 steps with 1608 atoms

Performance: 33.109 ns/day, 0.725 hours/ns, 191.601 timesteps/s
93.9% CPU use with 12 MPI tasks x no OpenMP threads

MPI task timing breakdown:
Section |  min time  |  avg time  |  max time  |%varavg| %total
---------------------------------------------------------------
Pair    | 2940       | 3176.9     | 3360.4     | 259.6 | 60.87
Bond    | 13.697     | 14.338     | 14.979     |  11.3 |  0.27
Kspace  | 1194       | 1376.9     | 1613.9     | 395.6 | 26.38
Neigh   | 169.06     | 169.15     | 169.23     |   0.4 |  3.24
Comm    | 151.68     | 152.97     | 154.59     |   7.4 |  2.93
Output  | 0.35631    | 0.357      | 0.35853    |   0.1 |  0.01
Modify  | 307.51     | 308.74     | 309.73     |   3.1 |  5.92
Other   |            | 19.82      |            |       |  0.38

Nlocal:            134 ave         148 max         125 min
Histogram: 1 0 3 4 2 0 1 0 0 1
Nghost:        4283.25 ave        4313 max        4251 min
Histogram: 2 1 1 0 1 2 1 0 2 2
Neighs:        49923.5 ave       55494 max       44345 min
Histogram: 1 2 0 2 0 2 2 1 0 2

Total # of neighbors = 599082
Ave neighs/atom = 372.56343
Ave special neighs/atom = 1.8656716
Neighbor list builds = 79574
Dangerous builds = 0
PPPM initialization ...
  extracting TIP4P info from pair style
  using 12-bit tables for long-range coulomb (../kspace.cpp:342)
  G vector (1/distance) = 0.31041189
  grid = 24 24 24
  stencil order = 5
  estimated absolute RMS force accuracy = 0.0037564486
  estimated relative force accuracy = 1.1312433e-05
  using double precision KISS FFT
  3d grid and FFT values/proc = 5415 1152
Generated 0 of 6 mixed pair_coeff terms from arithmetic mixing rule
Setting up Verlet run ...
  Unit style    : real
  Current step  : 6000000
  Time step     : 2
Per MPI rank memory allocation (min/avg/max) = 14.4 | 14.41 | 14.41 Mbytes
   Step        Density          Temp          Press          TotEng    
   6000000   1.1142955      312.21301     -372.00697     -13923.556    
   6100000   1.1142955      299.18171     -24.830821     -13935.362    
   6200000   1.1142955      290.42653     -43.915802     -13933.532    
   6300000   1.1142955      295.40222      1441.2398     -13924.836    
   6400000   1.1142955      302.13286      1047.0892     -13945.216    
   6500000   1.1142955      303.563        9.0145033     -13860.108    
   6600000   1.1142955      297.1119       81.926272     -13888.172    
   6700000   1.1142955      294.41312      885.4404      -13994.386    
   6800000   1.1142955      289.74124     -615.29809     -13940.259    
   6900000   1.1142955      285.34778      379.75001     -13986.687    
   7000000   1.1142955      298.08454      731.9721      -13984.391    
Loop time of 5229.03 on 12 procs for 1000000 steps with 1608 atoms

Performance: 33.046 ns/day, 0.726 hours/ns, 191.240 timesteps/s
93.8% CPU use with 12 MPI tasks x no OpenMP threads

MPI task timing breakdown:
Section |  min time  |  avg time  |  max time  |%varavg| %total
---------------------------------------------------------------
Pair    | 2956.5     | 3178.1     | 3329       | 237.1 | 60.78
Bond    | 13.764     | 14.413     | 15.049     |  11.5 |  0.28
Kspace  | 1234.8     | 1385       | 1608.2     | 360.5 | 26.49
Neigh   | 169.27     | 169.35     | 169.4      |   0.3 |  3.24
Comm    | 151.6      | 153.06     | 154.78     |   7.7 |  2.93
Output  | 0.35512    | 0.35798    | 0.35925    |   0.2 |  0.01
Modify  | 307.7      | 308.9      | 309.85     |   3.0 |  5.91
Other   |            | 19.9       |            |       |  0.38

Nlocal:            134 ave         143 max         127 min
Histogram: 3 1 1 1 0 2 1 0 1 2
Nghost:         4308.5 ave        4328 max        4292 min
Histogram: 1 1 1 2 4 0 1 0 0 2
Neighs:        49921.4 ave       56314 max       45173 min
Histogram: 1 3 0 1 2 3 0 1 0 1

Total # of neighbors = 599057
Ave neighs/atom = 372.54789
Ave special neighs/atom = 1.8656716
Neighbor list builds = 79681
Dangerous builds = 0
PPPM initialization ...
  extracting TIP4P info from pair style
  using 12-bit tables for long-range coulomb (../kspace.cpp:342)
  G vector (1/distance) = 0.31041189
  grid = 24 24 24
  stencil order = 5
  estimated absolute RMS force accuracy = 0.0037564486
  estimated relative force accuracy = 1.1312433e-05
  using double precision KISS FFT
  3d grid and FFT values/proc = 5415 1152
Generated 0 of 6 mixed pair_coeff terms from arithmetic mixing rule
Setting up Verlet run ...
  Unit style    : real
  Current step  : 7000000
  Time step     : 2
Per MPI rank memory allocation (min/avg/max) = 14.4 | 14.41 | 14.41 Mbytes
   Step        Density          Temp          Press          TotEng    
   7000000   1.1142955      298.08454      732.57457     -13984.391    
   7100000   1.1142955      301.76683      189.29028     -13891.618    
   7200000   1.1142955      291.12116      436.99297     -13882.398    
   7300000   1.1142955      297.32554     -281.62191     -13927.065    
   7400000   1.1142955      295.84688      333.74913     -13958.239    
   7500000   1.1142955      292.08508     -1625.1583     -13952.517    
   7600000   1.1142955      286.63452     -416.77044     -13927.674    
   7700000   1.1142955      296.5803       56.961702     -13859.839    
   7800000   1.1142955      304.94134      325.24537     -13882.682    
   7900000   1.1142955      298.77378     -1102.4029     -13855.555    
   8000000   1.1142955      306.40078      457.94418     -13866.756    
Loop time of 5225.24 on 12 procs for 1000000 steps with 1608 atoms

Performance: 33.070 ns/day, 0.726 hours/ns, 191.379 timesteps/s
93.8% CPU use with 12 MPI tasks x no OpenMP threads

MPI task timing breakdown:
Section |  min time  |  avg time  |  max time  |%varavg| %total
---------------------------------------------------------------
Pair    | 2948.9     | 3177.1     | 3363.5     | 261.3 | 60.80
Bond    | 13.693     | 14.351     | 14.908     |  10.0 |  0.27
Kspace  | 1193.2     | 1381.4     | 1611.2     | 397.8 | 26.44
Neigh   | 169.41     | 169.49     | 169.55     |   0.3 |  3.24
Comm    | 151.73     | 153.07     | 154.91     |   8.0 |  2.93
Output  | 0.3562     | 0.35793    | 0.35954    |   0.1 |  0.01
Modify  | 308.34     | 309.59     | 310.5      |   3.0 |  5.92
Other   |            | 19.86      |            |       |  0.38

Nlocal:            134 ave         144 max         126 min
Histogram: 1 1 2 2 1 1 2 1 0 1
Nghost:        4291.58 ave        4340 max        4250 min
Histogram: 1 0 1 4 1 1 2 1 0 1
Neighs:        49962.1 ave       54498 max       47877 min
Histogram: 3 1 3 2 1 0 1 0 0 1

Total # of neighbors = 599545
Ave neighs/atom = 372.85137
Ave special neighs/atom = 1.8656716
Neighbor list builds = 79580
Dangerous builds = 0
PPPM initialization ...
  extracting TIP4P info from pair style
  using 12-bit tables for long-range coulomb (../kspace.cpp:342)
  G vector (1/distance) = 0.31041189
  grid = 24 24 24
  stencil order = 5
  estimated absolute RMS force accuracy = 0.0037564486
  estimated relative force accuracy = 1.1312433e-05
  using double precision KISS FFT
  3d grid and FFT values/proc = 5415 1152
Generated 0 of 6 mixed pair_coeff terms from arithmetic mixing rule
Setting up Verlet run ...
  Unit style    : real
  Current step  : 8000000
  Time step     : 2
Per MPI rank memory allocation (min/avg/max) = 14.4 | 14.41 | 14.41 Mbytes
   Step        Density          Temp          Press          TotEng    
   8000000   1.1142955      306.40078      457.98831     -13866.756    
   8100000   1.1142955      305.11638     -528.31905     -13823.379    
   8200000   1.1142955      304.76512     -408.26135     -13916.133    
   8300000   1.1142955      300.11565     -188.70652     -13903.768    
   8400000   1.1142955      310.43919      1132.8458     -13890.77     
   8500000   1.1142955      301.3383      -247.63451     -13842.366    
   8600000   1.1142955      306.64016      311.69697     -13908.387    
   8700000   1.1142955      298.86377     -743.67506     -13909.531    
   8800000   1.1142955      290.58669      162.37188     -13899.308    
   8900000   1.1142955      292.40535     -632.90382     -13926.833    
   9000000   1.1142955      316.33896      273.4201      -13797.258    
Loop time of 5259.17 on 12 procs for 1000000 steps with 1608 atoms

Performance: 32.857 ns/day, 0.730 hours/ns, 190.144 timesteps/s
93.6% CPU use with 12 MPI tasks x no OpenMP threads

MPI task timing breakdown:
Section |  min time  |  avg time  |  max time  |%varavg| %total
---------------------------------------------------------------
Pair    | 2936.8     | 3184       | 3413.2     | 270.8 | 60.54
Bond    | 13.664     | 14.36      | 14.997     |  11.5 |  0.27
Kspace  | 1180.6     | 1409.2     | 1655.7     | 408.3 | 26.79
Neigh   | 169.32     | 169.39     | 169.46     |   0.3 |  3.22
Comm    | 151.52     | 152.92     | 154.66     |   7.7 |  2.91
Output  | 0.35526    | 0.35781    | 0.36071    |   0.2 |  0.01
Modify  | 307.81     | 309.09     | 310.05     |   3.1 |  5.88
Other   |            | 19.86      |            |       |  0.38

Nlocal:            134 ave         144 max         125 min
Histogram: 2 0 1 2 1 3 0 1 1 1
Nghost:        4278.67 ave        4320 max        4232 min
Histogram: 1 1 0 2 2 1 2 0 1 2
Neighs:        49949.6 ave       55427 max       43540 min
Histogram: 2 1 0 0 1 2 3 1 0 2

Total # of neighbors = 599395
Ave neighs/atom = 372.75808
Ave special neighs/atom = 1.8656716
Neighbor list builds = 79591
Dangerous builds = 0
PPPM initialization ...
  extracting TIP4P info from pair style
  using 12-bit tables for long-range coulomb (../kspace.cpp:342)
  G vector (1/distance) = 0.31041189
  grid = 24 24 24
  stencil order = 5
  estimated absolute RMS force accuracy = 0.0037564486
  estimated relative force accuracy = 1.1312433e-05
  using double precision KISS FFT
  3d grid and FFT values/proc = 5415 1152
Generated 0 of 6 mixed pair_coeff terms from arithmetic mixing rule
Setting up Verlet run ...
  Unit style    : real
  Current step  : 9000000
  Time step     : 2
Per MPI rank memory allocation (min/avg/max) = 14.4 | 14.41 | 14.41 Mbytes
   Step        Density          Temp          Press          TotEng    
   9000000   1.1142955      316.33896      273.1562      -13797.258    
   9100000   1.1142955      301.8773      -418.32782     -13959.963    
   9200000   1.1142955      306.15967      303.36332     -13849.45     
   9300000   1.1142955      296.47923      496.20707     -13912.563    
   9400000   1.1142955      293.39298      113.23948     -13963.675    
   9500000   1.1142955      297.48252     -58.586425     -13932.751    
   9600000   1.1142955      298.19527      789.01774     -13898.989    
   9700000   1.1142955      298.69202     -733.68989     -13962.232    
   9800000   1.1142955      300.1659      -450.76203     -13916.023    
   9900000   1.1142955      297.91653      566.02646     -13903.121    
  10000000   1.1142955      298.8448      -336.70117     -13960.071    
Loop time of 5246.68 on 12 procs for 1000000 steps with 1608 atoms

Performance: 32.935 ns/day, 0.729 hours/ns, 190.597 timesteps/s
93.8% CPU use with 12 MPI tasks x no OpenMP threads

MPI task timing breakdown:
Section |  min time  |  avg time  |  max time  |%varavg| %total
---------------------------------------------------------------
Pair    | 2965.1     | 3189.1     | 3350.2     | 256.0 | 60.78
Bond    | 13.662     | 14.352     | 15.052     |  12.4 |  0.27
Kspace  | 1228.1     | 1391.1     | 1616.8     | 389.5 | 26.51
Neigh   | 169.12     | 169.19     | 169.25     |   0.3 |  3.22
Comm    | 151.64     | 153.1      | 154.57     |   7.5 |  2.92
Output  | 0.35547    | 0.35816    | 0.35952    |   0.2 |  0.01
Modify  | 308.38     | 309.63     | 310.63     |   3.2 |  5.90
Other   |            | 19.87      |            |       |  0.38

Nlocal:            134 ave         149 max         122 min
Histogram: 1 1 1 2 3 2 0 1 0 1
Nghost:        4326.92 ave        4381 max        4271 min
Histogram: 2 1 0 1 1 2 1 1 2 1
Neighs:        49901.1 ave       55266 max       43487 min
Histogram: 1 1 2 1 1 0 0 2 3 1

Total # of neighbors = 598813
Ave neighs/atom = 372.39614
Ave special neighs/atom = 1.8656716
Neighbor list builds = 79594
Dangerous builds = 0
