LAMMPS (23 Jun 2022 - Update 2)
WARNING: Using I/O redirection is unreliable with parallel runs. Better use -in switch to read input file. (../lammps.cpp:530)
Reading data file ...
  orthogonal box = (0 0 0) to (26.379509 26.379509 26.379509)
  2 by 2 by 3 MPI processor grid
  reading atoms ...
  1608 atoms
  scanning bonds ...
  2 = max bonds/atom
  scanning angles ...
  1 = max angles/atom
  reading bonds ...
  1000 bonds
  reading angles ...
  500 angles
Finding 1-2 1-3 1-4 neighbors ...
  special bond factors lj:    0        0        0       
  special bond factors coul:  0        0        0       
     2 = max # of 1-2 neighbors
     1 = max # of 1-3 neighbors
     1 = max # of 1-4 neighbors
     2 = max # of special neighbors
  special bonds CPU = 0.003 seconds
  read_data CPU = 0.023 seconds
Setting atom values ...
  500 settings made for charge
Setting atom values ...
  1000 settings made for charge
Setting atom values ...
  54 settings made for charge
Setting atom values ...
  54 settings made for charge
500 atoms in group wat
54 atoms in group Li
54 atoms in group Cl
PPPM initialization ...
  extracting TIP4P info from pair style
  using 12-bit tables for long-range coulomb (../kspace.cpp:342)
  G vector (1/distance) = 0.31127036
  grid = 25 25 25
  stencil order = 5
  estimated absolute RMS force accuracy = 0.0034097995
  estimated relative force accuracy = 1.026851e-05
  using double precision KISS FFT
  3d grid and FFT values/proc = 6400 1875
Generated 0 of 6 mixed pair_coeff terms from arithmetic mixing rule
Neighbor list info ...
  update every 1 steps, delay 0 steps, check yes
  max neighbors/atom: 2000, page size: 100000
  master list distance cutoff = 12.3092
  ghost atom cutoff = 12.3092
  binsize = 6.1546, bins = 5 5 5
  1 neighbor lists, perpetual/occasional/extra = 1 0 0
  (1) pair lj/cut/tip4p/long, perpetual
      attributes: half, newton on
      pair build: half/bin/newton
      stencil: half/bin/3d
      bin: standard
Setting up cg style minimization ...
  Unit style    : real
  Current step  : 0
Per MPI rank memory allocation (min/avg/max) = 8.944 | 8.964 | 9.004 Mbytes
   Step          Temp          E_pair         E_mol          TotEng         Press     
         0   0              641.68376      3.1566538e-05  641.68379      52703.279    
      1000   0             -15695.723      94.172312     -15601.551     -5299.7128    
Loop time of 5.93765 on 12 procs for 1000 steps with 1608 atoms

93.4% CPU use with 12 MPI tasks x no OpenMP threads

Minimization stats:
  Stopping criterion = max iterations
  Energy initial, next-to-last, final = 
      641.683787181595  -15601.0710018281   -15601.550789311
  Force two-norm initial, final = 2112.4623 42.476166
  Force max component initial, final = 608.22136 9.3161348
  Final line search alpha, max atom move = 0.0026960674 0.025116928
  Iterations, force evaluations = 1000 1842

MPI task timing breakdown:
Section |  min time  |  avg time  |  max time  |%varavg| %total
---------------------------------------------------------------
Pair    | 3.2952     | 3.656      | 4.0572     |  11.6 | 61.57
Bond    | 0.017093   | 0.018129   | 0.019281   |   0.5 |  0.31
Kspace  | 1.5002     | 1.8995     | 2.2601     |  16.0 | 31.99
Neigh   | 0.030682   | 0.030789   | 0.030853   |   0.0 |  0.52
Comm    | 0.22863    | 0.23391    | 0.23815    |   0.6 |  3.94
Output  | 7.3433e-05 | 9.4024e-05 | 0.00030818 |   0.0 |  0.00
Modify  | 0          | 0          | 0          |   0.0 |  0.00
Other   |            | 0.09925    |            |       |  1.67

Nlocal:            134 ave         140 max         128 min
Histogram: 1 1 1 0 3 2 0 2 1 1
Nghost:        4116.92 ave        4183 max        4017 min
Histogram: 1 0 1 0 3 0 2 1 1 3
Neighs:        45853.6 ave       49043 max       42855 min
Histogram: 3 1 0 1 0 1 3 1 0 2

Total # of neighbors = 550243
Ave neighs/atom = 342.19092
Ave special neighs/atom = 1.8656716
Neighbor list builds = 16
Dangerous builds = 0
Finding SHAKE clusters ...
       0 = # of size 2 clusters
       0 = # of size 3 clusters
       0 = # of size 4 clusters
     500 = # of frozen angles
  find clusters CPU = 0.001 seconds
PPPM initialization ...
  extracting TIP4P info from pair style
  using 12-bit tables for long-range coulomb (../kspace.cpp:342)
  G vector (1/distance) = 0.31127036
  grid = 25 25 25
  stencil order = 5
  estimated absolute RMS force accuracy = 0.0034097995
  estimated relative force accuracy = 1.026851e-05
  using double precision KISS FFT
  3d grid and FFT values/proc = 6400 1875
Generated 0 of 6 mixed pair_coeff terms from arithmetic mixing rule
Setting up Verlet run ...
  Unit style    : real
  Current step  : 0
  Time step     : 0.001
Per MPI rank memory allocation (min/avg/max) = 8.694 | 8.714 | 8.754 Mbytes
   Step        Density          Temp          Press          TotEng    
         0   1.0219065      432.81576      481746.59     -14267.536    
     10000   1.0303027      174.59395      1258.5061     -14484.409    
Loop time of 42.7804 on 12 procs for 10000 steps with 1608 atoms

Performance: 0.020 ns/day, 1188.343 hours/ns, 233.752 timesteps/s
92.0% CPU use with 12 MPI tasks x no OpenMP threads

MPI task timing breakdown:
Section |  min time  |  avg time  |  max time  |%varavg| %total
---------------------------------------------------------------
Pair    | 21.88      | 24.192     | 26.589     |  27.7 | 56.55
Bond    | 0.0066444  | 0.0076952  | 0.011885   |   1.5 |  0.02
Kspace  | 8.0579     | 10.46      | 12.769     |  42.2 | 24.45
Neigh   | 0          | 0          | 0          |   0.0 |  0.00
Comm    | 1.2071     | 1.2269     | 1.26       |   1.4 |  2.87
Output  | 6.4783e-05 | 8.6746e-05 | 0.00031448 |   0.0 |  0.00
Modify  | 4.6419     | 5.129      | 6.7442     |  22.0 | 11.99
Other   |            | 1.765      |            |       |  4.13

Nlocal:            134 ave         139 max         128 min
Histogram: 2 0 1 0 2 3 0 0 1 3
Nghost:         4126.5 ave        4191 max        4024 min
Histogram: 1 0 1 0 2 1 2 1 2 2
Neighs:        45850.9 ave       48798 max       41816 min
Histogram: 1 0 2 1 1 0 1 4 0 2

Total # of neighbors = 550211
Ave neighs/atom = 342.17102
Ave special neighs/atom = 1.8656716
Neighbor list builds = 0
Dangerous builds = 0
PPPM initialization ...
  extracting TIP4P info from pair style
  using 12-bit tables for long-range coulomb (../kspace.cpp:342)
  G vector (1/distance) = 0.31146595
  grid = 25 25 25
  stencil order = 5
  estimated absolute RMS force accuracy = 0.003382248
  estimated relative force accuracy = 1.0185539e-05
  using double precision KISS FFT
  3d grid and FFT values/proc = 6400 1875
Generated 0 of 6 mixed pair_coeff terms from arithmetic mixing rule
Setting up Verlet run ...
  Unit style    : real
  Current step  : 10000
  Time step     : 0.01
Per MPI rank memory allocation (min/avg/max) = 8.694 | 8.714 | 8.754 Mbytes
   Step        Density          Temp          Press          TotEng    
     10000   1.0303027      174.59395     -178467.39     -14484.409    
     20000   1.0236185      300.15795      198.72845     -13428.346    
Loop time of 42.8914 on 12 procs for 10000 steps with 1608 atoms

Performance: 0.201 ns/day, 119.143 hours/ns, 233.147 timesteps/s
91.9% CPU use with 12 MPI tasks x no OpenMP threads

MPI task timing breakdown:
Section |  min time  |  avg time  |  max time  |%varavg| %total
---------------------------------------------------------------
Pair    | 20.998     | 23.99      | 26.569     |  32.5 | 55.93
Bond    | 0.0066559  | 0.0076371  | 0.010708   |   1.2 |  0.02
Kspace  | 8.1137     | 10.692     | 13.69      |  48.4 | 24.93
Neigh   | 0.0076219  | 0.0076499  | 0.0076755  |   0.0 |  0.02
Comm    | 1.2538     | 1.2912     | 1.3539     |   2.5 |  3.01
Output  | 6.32e-05   | 8.4756e-05 | 0.00031696 |   0.0 |  0.00
Modify  | 4.6552     | 5.1401     | 6.7547     |  21.9 | 11.98
Other   |            | 1.763      |            |       |  4.11

Nlocal:            134 ave         144 max         126 min
Histogram: 2 0 3 1 1 2 1 0 0 2
Nghost:        4093.08 ave        4165 max        3998 min
Histogram: 1 1 0 1 1 3 1 1 0 3
Neighs:        45585.8 ave       49350 max       40648 min
Histogram: 1 1 1 1 0 1 2 1 2 2

Total # of neighbors = 547029
Ave neighs/atom = 340.19216
Ave special neighs/atom = 1.8656716
Neighbor list builds = 4
Dangerous builds = 0
PPPM initialization ...
  extracting TIP4P info from pair style
  using 12-bit tables for long-range coulomb (../kspace.cpp:342)
  G vector (1/distance) = 0.31131039
  grid = 25 25 25
  stencil order = 5
  estimated absolute RMS force accuracy = 0.0034041444
  estimated relative force accuracy = 1.025148e-05
  using double precision KISS FFT
  3d grid and FFT values/proc = 6400 1875
Generated 0 of 6 mixed pair_coeff terms from arithmetic mixing rule
Setting up Verlet run ...
  Unit style    : real
  Current step  : 20000
  Time step     : 0.1
Per MPI rank memory allocation (min/avg/max) = 8.694 | 8.714 | 8.754 Mbytes
   Step        Density          Temp          Press          TotEng    
     20000   1.0236185      300.15795     -14174.131     -13428.346    
     30000   1.088061       302.32409     -624.56335     -13564.747    
Loop time of 45.4221 on 12 procs for 10000 steps with 1608 atoms

Performance: 1.902 ns/day, 12.617 hours/ns, 220.157 timesteps/s
91.3% CPU use with 12 MPI tasks x no OpenMP threads

MPI task timing breakdown:
Section |  min time  |  avg time  |  max time  |%varavg| %total
---------------------------------------------------------------
Pair    | 22.322     | 25.677     | 28.071     |  31.1 | 56.53
Bond    | 0.0067261  | 0.0076845  | 0.0095136  |   0.9 |  0.02
Kspace  | 9.0252     | 11.431     | 14.777     |  46.7 | 25.17
Neigh   | 0.088981   | 0.08918    | 0.089327   |   0.0 |  0.20
Comm    | 1.2602     | 1.288      | 1.3156     |   1.3 |  2.84
Output  | 6.1214e-05 | 8.3858e-05 | 0.00031653 |   0.0 |  0.00
Modify  | 4.6806     | 5.1671     | 6.7833     |  21.9 | 11.38
Other   |            | 1.763      |            |       |  3.88

Nlocal:            134 ave         145 max         121 min
Histogram: 1 0 0 3 1 1 3 1 1 1
Nghost:        4249.25 ave        4274 max        4216 min
Histogram: 1 0 0 1 2 4 1 1 0 2
Neighs:        48944.2 ave       57041 max       41213 min
Histogram: 1 1 1 1 1 4 1 0 1 1

Total # of neighbors = 587331
Ave neighs/atom = 365.2556
Ave special neighs/atom = 1.8656716
Neighbor list builds = 44
Dangerous builds = 0
PPPM initialization ...
  extracting TIP4P info from pair style
  using 12-bit tables for long-range coulomb (../kspace.cpp:342)
  G vector (1/distance) = 0.30983847
  grid = 24 24 24
  stencil order = 5
  estimated absolute RMS force accuracy = 0.0038464283
  estimated relative force accuracy = 1.1583404e-05
  using double precision KISS FFT
  3d grid and FFT values/proc = 5415 1152
Generated 0 of 6 mixed pair_coeff terms from arithmetic mixing rule
Setting up Verlet run ...
  Unit style    : real
  Current step  : 30000
  Time step     : 0.2
Per MPI rank memory allocation (min/avg/max) = 8.66 | 8.665 | 8.668 Mbytes
   Step        Density          Temp          Press          TotEng    
     30000   1.088061       302.32409     -1096.1436     -13564.75     
     40000   1.0928674      292.17874     -1260.5704     -13680.726    
Loop time of 44.065 on 12 procs for 10000 steps with 1608 atoms

Performance: 3.921 ns/day, 6.120 hours/ns, 226.937 timesteps/s
93.6% CPU use with 12 MPI tasks x no OpenMP threads

MPI task timing breakdown:
Section |  min time  |  avg time  |  max time  |%varavg| %total
---------------------------------------------------------------
Pair    | 22.957     | 26.832     | 29.255     |  34.8 | 60.89
Bond    | 0.0066822  | 0.0075956  | 0.0098094  |   1.0 |  0.02
Kspace  | 8.3012     | 10.734     | 14.6       |  55.0 | 24.36
Neigh   | 0.17983    | 0.18032    | 0.1807     |   0.1 |  0.41
Comm    | 1.2937     | 1.3142     | 1.3328     |   1.0 |  2.98
Output  | 6.0417e-05 | 8.0216e-05 | 0.00027565 |   0.0 |  0.00
Modify  | 4.5079     | 4.7736     | 4.8192     |   3.7 | 10.83
Other   |            | 0.2233     |            |       |  0.51

Nlocal:            134 ave         141 max         124 min
Histogram: 1 0 1 0 4 0 0 2 3 1
Nghost:        4271.67 ave        4364 max        4206 min
Histogram: 3 0 1 1 3 1 1 0 1 1
Neighs:        49334.1 ave       55349 max       42264 min
Histogram: 1 0 2 1 2 0 2 1 2 1

Total # of neighbors = 592009
Ave neighs/atom = 368.1648
Ave special neighs/atom = 1.8656716
Neighbor list builds = 87
Dangerous builds = 0
PPPM initialization ...
  extracting TIP4P info from pair style
  using 12-bit tables for long-range coulomb (../kspace.cpp:342)
  G vector (1/distance) = 0.30994465
  grid = 24 24 24
  stencil order = 5
  estimated absolute RMS force accuracy = 0.0038296173
  estimated relative force accuracy = 1.1532779e-05
  using double precision KISS FFT
  3d grid and FFT values/proc = 5415 1152
Generated 0 of 6 mixed pair_coeff terms from arithmetic mixing rule
Setting up Verlet run ...
  Unit style    : real
  Current step  : 40000
  Time step     : 0.5
Per MPI rank memory allocation (min/avg/max) = 8.66 | 8.665 | 8.669 Mbytes
   Step        Density          Temp          Press          TotEng    
     40000   1.0928674      292.17874     -876.41458     -13680.726    
     50000   1.1249907      292.39034      1127.2553     -13814.35     
Loop time of 44.3987 on 12 procs for 10000 steps with 1608 atoms

Performance: 9.730 ns/day, 2.467 hours/ns, 225.232 timesteps/s
94.5% CPU use with 12 MPI tasks x no OpenMP threads

MPI task timing breakdown:
Section |  min time  |  avg time  |  max time  |%varavg| %total
---------------------------------------------------------------
Pair    | 23.726     | 27.417     | 29.591     |  28.8 | 61.75
Bond    | 0.0067759  | 0.0077214  | 0.0088461  |   0.8 |  0.02
Kspace  | 7.99       | 10.164     | 13.839     |  47.3 | 22.89
Neigh   | 0.45646    | 0.45716    | 0.45782    |   0.1 |  1.03
Comm    | 1.317      | 1.3325     | 1.3583     |   0.9 |  3.00
Output  | 6.435e-05  | 8.3462e-05 | 0.00027764 |   0.0 |  0.00
Modify  | 4.5291     | 4.794      | 4.8351     |   3.7 | 10.80
Other   |            | 0.2269     |            |       |  0.51

Nlocal:            134 ave         144 max         126 min
Histogram: 1 1 3 1 0 3 1 1 0 1
Nghost:        4338.67 ave        4380 max        4297 min
Histogram: 2 0 0 3 0 3 1 1 0 2
Neighs:        50418.1 ave       54789 max       45541 min
Histogram: 1 1 1 1 3 1 1 0 0 3

Total # of neighbors = 605017
Ave neighs/atom = 376.25435
Ave special neighs/atom = 1.8656716
Neighbor list builds = 221
Dangerous builds = 0
PPPM initialization ...
  extracting TIP4P info from pair style
  using 12-bit tables for long-range coulomb (../kspace.cpp:342)
  G vector (1/distance) = 0.31064141
  grid = 24 24 24
  stencil order = 5
  estimated absolute RMS force accuracy = 0.0037209808
  estimated relative force accuracy = 1.1205623e-05
  using double precision KISS FFT
  3d grid and FFT values/proc = 5415 1152
Generated 0 of 6 mixed pair_coeff terms from arithmetic mixing rule
Setting up Verlet run ...
  Unit style    : real
  Current step  : 0
  Time step     : 1
Per MPI rank memory allocation (min/avg/max) = 8.661 | 8.666 | 8.669 Mbytes
   Step        Density          Temp          Press          TotEng    
         0   1.1249907      292.39034      692.04884     -13814.349    
    100000   1.111674       300.2671       804.43633     -13837.418    
    200000   1.1108592      307.27145     -758.83281     -13913.909    
    300000   1.1088389      297.72011      206.81563     -13910.129    
    400000   1.1209587      293.08072      482.29537     -13930.909    
    500000   1.1162312      302.09633     -274.10831     -13940.887    
    600000   1.1218701      288.98602      499.77588     -13911.752    
    700000   1.1134569      303.11206     -1011.0962     -13926.619    
    800000   1.1076867      294.18113     -909.69691     -13889.2      
    900000   1.102331       292.79399     -1558.0545     -13865.236    
   1000000   1.1090905      304.01407     -380.16124     -13910.291    
   1100000   1.1239198      299.28154      833.49775     -13943.514    
   1200000   1.1233565      283.92052     -688.8076      -14014.125    
   1300000   1.1234925      302.94297      505.57354     -13930.019    
   1400000   1.1034148      301.18678     -507.71322     -13917.904    
   1500000   1.1199806      299.57848     -422.4241      -14000.481    
   1600000   1.1178671      283.94081      1406.9955     -13974.409    
   1700000   1.1148119      288.49948     -635.383       -14001.66     
   1800000   1.1054018      298.06494     -1211.6844     -13851.829    
   1900000   1.1162804      309.33151      142.38345     -13893.16     
   2000000   1.1122008      312.92854     -550.36441     -13879.914    
   2100000   1.1220946      299.44569     -404.11806     -13904.468    
   2200000   1.1097582      292.96955      41.758056     -13972.111    
   2300000   1.1333417      304.85823      1121.3602     -13872.273    
   2400000   1.1120365      306.85439     -140.25761     -13863.024    
   2500000   1.106231       290.34917     -239.61366     -14002.452    
   2600000   1.1196166      295.32845      1071.6203     -13897.442    
   2700000   1.1175994      302.24275      253.88507     -13910.96     
   2800000   1.1139162      301.00348      379.89345     -13996.002    
   2900000   1.1123233      301.36661     -628.58867     -13916.805    
   3000000   1.1113504      292.46051     -208.23289     -13976.02     
   3100000   1.1227474      302.18513      88.854632     -13914.55     
   3200000   1.1146997      301.64096      113.08701     -13902.66     
   3300000   1.1060919      293.07627      94.805842     -13980.118    
   3400000   1.1236293      305.70387      1554.5734     -13888.075    
   3500000   1.1193616      294.13418      1028.6833     -13888.998    
   3600000   1.112828       302.64829      1001.9993     -13912.406    
   3700000   1.1152757      305.58513      493.54803     -13926.658    
   3800000   1.126988       288.19168      223.75731     -13973.8      
   3900000   1.1019171      292.36663     -974.42568     -13885.986    
   4000000   1.1084169      298.12142     -905.8666      -13922.313    
   4100000   1.1052853      299.22263     -199.57058     -13872.4      
   4200000   1.1063828      295.30103      840.38917     -13912.615    
   4300000   1.1178175      292.29813      79.770815     -13944.419    
   4400000   1.1060656      302.10417      159.442       -13977.004    
   4500000   1.100326       291.88048     -219.63933     -13948.121    
   4600000   1.1197782      295.92961     -533.48579     -13948.888    
   4700000   1.1163263      299.23962      178.58707     -14034.463    
   4800000   1.1065423      307.02087     -667.42435     -13896.024    
   4900000   1.0977912      305.448       -637.02192     -13896.225    
   5000000   1.1053413      300.70163      35.009537     -13912.773    
Loop time of 22931.7 on 12 procs for 5000000 steps with 1608 atoms

Performance: 18.839 ns/day, 1.274 hours/ns, 218.039 timesteps/s
93.7% CPU use with 12 MPI tasks x no OpenMP threads

MPI task timing breakdown:
Section |  min time  |  avg time  |  max time  |%varavg| %total
---------------------------------------------------------------
Pair    | 12830      | 13850      | 14607      | 580.7 | 60.40
Bond    | 3.4295     | 3.836      | 4.6556     |  17.8 |  0.02
Kspace  | 4676.5     | 5435.3     | 6463.9     | 928.4 | 23.70
Neigh   | 430.69     | 430.93     | 431.18     |   0.7 |  1.88
Comm    | 683.16     | 688.83     | 698.26     |  16.1 |  3.00
Output  | 0.003186   | 0.0042785  | 0.016025   |   5.4 |  0.00
Modify  | 2278.1     | 2409.6     | 2429.9     |  81.7 | 10.51
Other   |            | 112.9      |            |       |  0.49

Nlocal:            134 ave         143 max         124 min
Histogram: 1 0 1 3 2 0 2 0 1 2
Nghost:        4267.33 ave        4333 max        4200 min
Histogram: 1 3 0 0 2 1 1 1 1 2
Neighs:        49515.4 ave       57817 max       44358 min
Histogram: 4 0 0 4 0 1 0 2 0 1

Total # of neighbors = 594185
Ave neighs/atom = 369.51803
Ave special neighs/atom = 1.8656716
Neighbor list builds = 203993
Dangerous builds = 0
PPPM initialization ...
  extracting TIP4P info from pair style
  using 12-bit tables for long-range coulomb (../kspace.cpp:342)
  G vector (1/distance) = 0.31021786
  grid = 24 24 24
  stencil order = 5
  estimated absolute RMS force accuracy = 0.0037866758
  estimated relative force accuracy = 1.1403462e-05
  using double precision KISS FFT
  3d grid and FFT values/proc = 5415 1152
Generated 0 of 6 mixed pair_coeff terms from arithmetic mixing rule
Setting up Verlet run ...
  Unit style    : real
  Current step  : 0
  Time step     : 1
Per MPI rank memory allocation (min/avg/max) = 8.661 | 8.666 | 8.67 Mbytes
   Step        Density          Temp          Press          TotEng    
         0   1.1053413      300.70163      28.465017     -13912.774    
    100000   1.1112354      304.17784      776.30182     -13948.154    
    200000   1.1249629      289.92803     -836.85821     -14005.08     
    300000   1.1333291      287.42871      527.01838     -13928.967    
    400000   1.1178853      297.93294      343.33288     -13913.627    
    500000   1.1171886      304.5122       625.27885     -13925.192    
    600000   1.1092125      296.47054      284.52587     -13904.011    
    700000   1.1144525      296.77003     -303.2538      -13942.144    
    800000   1.1270651      286.7019      -495.11962     -13928.8      
    900000   1.1122023      305.47243      288.07046     -13899.576    
   1000000   1.1236564      293.0169      -869.51104     -13937.058    
   1100000   1.1271605      293.40329      1434.657      -13986.276    
   1200000   1.1201526      297.1665       248.97238     -13957.789    
   1300000   1.1180122      299.93374     -140.91078     -13891.332    
   1400000   1.1276007      298.97273      751.90494     -13897.122    
   1500000   1.1139804      303.2832       550.00275     -13829.699    
   1600000   1.1168633      303.00759     -566.66574     -13926.56     
   1700000   1.1173061      301.59626     -758.8411      -13937.593    
   1800000   1.1172232      299.29982     -653.10891     -13921.124    
   1900000   1.1287979      296.98455      1171.7971     -13921.687    
   2000000   1.1181872      292.99096     -463.92763     -13979.434    
   2100000   1.1037106      290.32891     -2.9679258     -13914.963    
   2200000   1.1120844      297.35834      93.276194     -13936.923    
   2300000   1.1153617      302.674       -487.29451     -13944.035    
   2400000   1.1202734      297.46496     -319.39764     -13959.808    
   2500000   1.1237397      295.31774      831.0714      -13915.004    
   2600000   1.1209249      292.93878      511.25883     -13987.308    
   2700000   1.1344146      293.55815      61.36032      -13951.482    
   2800000   1.107922       291.19801     -372.49472     -13942.607    
   2900000   1.1137145      296.47087      353.01647     -13891.979    
   3000000   1.1028287      289.74211     -612.95789     -13956.252    
   3100000   1.1163773      300.02805     -100.48109     -13970.774    
   3200000   1.1237637      286.48075      1012.8782     -13971.701    
   3300000   1.1171562      309.56636     -671.27103     -13986.757    
   3400000   1.1300792      289.93706      218.52278     -13918.619    
   3500000   1.110057       294.29948     -592.31038     -13996.685    
   3600000   1.1058998      289.29513     -609.48399     -13977.998    
   3700000   1.0944994      286.92966     -275.4054      -13901.045    
   3800000   1.120939       291.61488      746.74099     -13987.868    
   3900000   1.0990242      313.51989      584.93937     -13862.804    
   4000000   1.1031998      295.32794      157.92933     -13847.133    
   4100000   1.1130047      294.77107      480.42643     -13889.824    
   4200000   1.1143976      295.40979      991.20529     -13863.476    
   4300000   1.11356        286.48105      683.67088     -13942.399    
   4400000   1.1104745      306.89472     -880.55198     -13906.899    
   4500000   1.1168794      286.74203      1188.9212     -13966.553    
   4600000   1.1178645      300.7538      -740.86942     -13917.945    
   4700000   1.0951784      306.92883     -823.02062     -13828.185    
   4800000   1.118402       294.28994     -210.64526     -13960.829    
   4900000   1.1124708      311.46226      5.7119131     -13878.959    
   5000000   1.1104816      310.61386      265.08138     -13831.23     
Loop time of 23074.3 on 12 procs for 5000000 steps with 1608 atoms

Performance: 18.722 ns/day, 1.282 hours/ns, 216.691 timesteps/s
93.7% CPU use with 12 MPI tasks x no OpenMP threads

MPI task timing breakdown:
Section |  min time  |  avg time  |  max time  |%varavg| %total
---------------------------------------------------------------
Pair    | 12788      | 13832      | 14624      | 553.1 | 59.95
Bond    | 3.5099     | 3.9135     | 4.718      |  16.6 |  0.02
Kspace  | 4607.7     | 5401.3     | 6452.6     | 886.0 | 23.41
Neigh   | 430.62     | 430.79     | 431.06     |   0.6 |  1.87
Comm    | 684.58     | 690.52     | 699.96     |  16.2 |  2.99
Output  | 0.22013    | 0.22073    | 0.22694    |   0.4 |  0.00
Modify  | 2471.4     | 2602.5     | 2621.9     |  78.3 | 11.28
Other   |            | 113        |            |       |  0.49

Nlocal:            134 ave         148 max         124 min
Histogram: 1 1 3 0 2 3 1 0 0 1
Nghost:        4311.67 ave        4354 max        4261 min
Histogram: 1 1 0 2 2 1 1 1 1 2
Neighs:        49771.2 ave       53570 max       45737 min
Histogram: 1 2 0 2 1 1 0 1 3 1

Total # of neighbors = 597254
Ave neighs/atom = 371.42662
Ave special neighs/atom = 1.8656716
Neighbor list builds = 204030
Dangerous builds = 0
Changing box ...
  orthogonal box = (0.36044437 0.36044437 0.36044437) to (25.987972 26.019065 26.019065)
  orthogonal box = (0.36044437 0.36044437 0.36044437) to (25.987972 25.987972 26.019065)
  orthogonal box = (0.36044437 0.36044437 0.36044437) to (25.987972 25.987972 25.987972)
PPPM initialization ...
  extracting TIP4P info from pair style
  using 12-bit tables for long-range coulomb (../kspace.cpp:342)
  G vector (1/distance) = 0.31041691
  grid = 24 24 24
  stencil order = 5
  estimated absolute RMS force accuracy = 0.003755669
  estimated relative force accuracy = 1.1310086e-05
  using double precision KISS FFT
  3d grid and FFT values/proc = 5415 1152
Generated 0 of 6 mixed pair_coeff terms from arithmetic mixing rule
Setting up Verlet run ...
  Unit style    : real
  Current step  : 5000000
  Time step     : 0.001
Per MPI rank memory allocation (min/avg/max) = 8.661 | 8.666 | 8.67 Mbytes
   Step        Density          Temp          Press          TotEng    
   5000000   1.1145284      310.61386      3436.8558     -13811.251    
   5010000   1.1145284      303.73123      1089.3912     -13861.441    
Loop time of 29.9055 on 12 procs for 10000 steps with 1608 atoms

Performance: 0.029 ns/day, 830.708 hours/ns, 334.387 timesteps/s
95.0% CPU use with 12 MPI tasks x no OpenMP threads

MPI task timing breakdown:
Section |  min time  |  avg time  |  max time  |%varavg| %total
---------------------------------------------------------------
Pair    | 16.953     | 18.884     | 20.084     |  21.8 | 63.14
Bond    | 0.0020542  | 0.0039186  | 0.0052098  |   1.4 |  0.01
Kspace  | 7.3212     | 8.4477     | 10.376     |  32.0 | 28.25
Neigh   | 0          | 0          | 0          |   0.0 |  0.00
Comm    | 1.2856     | 1.3512     | 1.3985     |   2.5 |  4.52
Output  | 6.3521e-05 | 8.1885e-05 | 0.00027281 |   0.0 |  0.00
Modify  | 1.0359     | 1.0474     | 1.0567     |   0.6 |  3.50
Other   |            | 0.1717     |            |       |  0.57

Nlocal:            134 ave         147 max         124 min
Histogram: 1 0 1 3 2 3 1 0 0 1
Nghost:         4314.5 ave        4358 max        4265 min
Histogram: 1 1 1 1 1 3 0 1 1 2
Neighs:        49954.9 ave       53792 max       46145 min
Histogram: 2 1 1 2 0 1 0 2 2 1

Total # of neighbors = 599459
Ave neighs/atom = 372.79789
Ave special neighs/atom = 1.8656716
Neighbor list builds = 0
Dangerous builds = 0
PPPM initialization ...
  extracting TIP4P info from pair style
  using 12-bit tables for long-range coulomb (../kspace.cpp:342)
  G vector (1/distance) = 0.31041691
  grid = 24 24 24
  stencil order = 5
  estimated absolute RMS force accuracy = 0.003755669
  estimated relative force accuracy = 1.1310086e-05
  using double precision KISS FFT
  3d grid and FFT values/proc = 5415 1152
Generated 0 of 6 mixed pair_coeff terms from arithmetic mixing rule
Setting up Verlet run ...
  Unit style    : real
  Current step  : 5010000
  Time step     : 0.01
Per MPI rank memory allocation (min/avg/max) = 8.661 | 8.666 | 8.67 Mbytes
   Step        Density          Temp          Press          TotEng    
   5010000   1.1145284      303.73123      1089.3339     -13861.441    
   5020000   1.1145284      292.89953      532.38966     -13941.306    
Loop time of 30.0071 on 12 procs for 10000 steps with 1608 atoms

Performance: 0.288 ns/day, 83.353 hours/ns, 333.255 timesteps/s
94.7% CPU use with 12 MPI tasks x no OpenMP threads

MPI task timing breakdown:
Section |  min time  |  avg time  |  max time  |%varavg| %total
---------------------------------------------------------------
Pair    | 17.059     | 18.844     | 20.09      |  21.1 | 62.80
Bond    | 0.0022775  | 0.0038852  | 0.0052714  |   1.2 |  0.01
Kspace  | 7.3547     | 8.6072     | 10.391     |  30.9 | 28.68
Neigh   | 0.0083564  | 0.0083645  | 0.0083747  |   0.0 |  0.03
Comm    | 1.2423     | 1.3063     | 1.3475     |   2.3 |  4.35
Output  | 6.4401e-05 | 8.3374e-05 | 0.00027632 |   0.0 |  0.00
Modify  | 1.0549     | 1.0659     | 1.0766     |   0.6 |  3.55
Other   |            | 0.1715     |            |       |  0.57

Nlocal:            134 ave         147 max         126 min
Histogram: 2 3 2 0 1 0 2 1 0 1
Nghost:        4310.42 ave        4359 max        4267 min
Histogram: 2 1 0 1 1 3 3 0 0 1
Neighs:        49953.8 ave       56441 max       46717 min
Histogram: 3 2 1 0 4 1 0 0 0 1

Total # of neighbors = 599445
Ave neighs/atom = 372.78918
Ave special neighs/atom = 1.8656716
Neighbor list builds = 4
Dangerous builds = 0
PPPM initialization ...
  extracting TIP4P info from pair style
  using 12-bit tables for long-range coulomb (../kspace.cpp:342)
  G vector (1/distance) = 0.31041691
  grid = 24 24 24
  stencil order = 5
  estimated absolute RMS force accuracy = 0.003755669
  estimated relative force accuracy = 1.1310086e-05
  using double precision KISS FFT
  3d grid and FFT values/proc = 5415 1152
Generated 0 of 6 mixed pair_coeff terms from arithmetic mixing rule
Setting up Verlet run ...
  Unit style    : real
  Current step  : 5020000
  Time step     : 0.1
Per MPI rank memory allocation (min/avg/max) = 8.661 | 8.666 | 8.67 Mbytes
   Step        Density          Temp          Press          TotEng    
   5020000   1.1145284      292.89953      532.1645      -13941.306    
   5030000   1.1145284      291.56974      869.73907     -13929.221    
Loop time of 31.5301 on 12 procs for 10000 steps with 1608 atoms

Performance: 2.740 ns/day, 8.758 hours/ns, 317.157 timesteps/s
92.8% CPU use with 12 MPI tasks x no OpenMP threads

MPI task timing breakdown:
Section |  min time  |  avg time  |  max time  |%varavg| %total
---------------------------------------------------------------
Pair    | 16.78      | 19.012     | 21.485     |  30.1 | 60.30
Bond    | 0.0020905  | 0.0038429  | 0.0052038  |   1.2 |  0.01
Kspace  | 7.4361     | 9.858      | 12.074     |  40.9 | 31.27
Neigh   | 0.082955   | 0.083016   | 0.0831     |   0.0 |  0.26
Comm    | 1.2632     | 1.3325     | 1.3912     |   3.4 |  4.23
Output  | 6.5102e-05 | 8.479e-05  | 0.00028586 |   0.0 |  0.00
Modify  | 1.0675     | 1.0726     | 1.077      |   0.3 |  3.40
Other   |            | 0.1682     |            |       |  0.53

Nlocal:            134 ave         146 max         117 min
Histogram: 1 0 1 1 2 1 1 3 0 2
Nghost:        4315.83 ave        4381 max        4274 min
Histogram: 3 0 2 2 1 1 2 0 0 1
Neighs:        49949.1 ave       54787 max       43254 min
Histogram: 2 0 0 1 1 2 1 1 2 2

Total # of neighbors = 599389
Ave neighs/atom = 372.75435
Ave special neighs/atom = 1.8656716
Neighbor list builds = 39
Dangerous builds = 0
PPPM initialization ...
  extracting TIP4P info from pair style
  using 12-bit tables for long-range coulomb (../kspace.cpp:342)
  G vector (1/distance) = 0.31041691
  grid = 24 24 24
  stencil order = 5
  estimated absolute RMS force accuracy = 0.003755669
  estimated relative force accuracy = 1.1310086e-05
  using double precision KISS FFT
  3d grid and FFT values/proc = 5415 1152
Generated 0 of 6 mixed pair_coeff terms from arithmetic mixing rule
Setting up Verlet run ...
  Unit style    : real
  Current step  : 5030000
  Time step     : 0.2
Per MPI rank memory allocation (min/avg/max) = 8.661 | 8.666 | 8.67 Mbytes
   Step        Density          Temp          Press          TotEng    
   5030000   1.1145284      291.56974      869.66571     -13929.221    
   5040000   1.1145284      306.96468     -475.09879     -13905.491    
Loop time of 31.6802 on 12 procs for 10000 steps with 1608 atoms

Performance: 5.455 ns/day, 4.400 hours/ns, 315.655 timesteps/s
92.8% CPU use with 12 MPI tasks x no OpenMP threads

MPI task timing breakdown:
Section |  min time  |  avg time  |  max time  |%varavg| %total
---------------------------------------------------------------
Pair    | 16.102     | 19.045     | 21.366     |  31.6 | 60.12
Bond    | 0.0021209  | 0.0038516  | 0.0051403  |   1.2 |  0.01
Kspace  | 7.6191     | 9.8896     | 12.785     |  43.0 | 31.22
Neigh   | 0.1785     | 0.17863    | 0.17879    |   0.0 |  0.56
Comm    | 1.2639     | 1.3277     | 1.3725     |   3.0 |  4.19
Output  | 6.4201e-05 | 8.2475e-05 | 0.00027383 |   0.0 |  0.00
Modify  | 1.0592     | 1.0649     | 1.0717     |   0.4 |  3.36
Other   |            | 0.1704     |            |       |  0.54

Nlocal:            134 ave         152 max         120 min
Histogram: 1 1 2 2 1 1 2 1 0 1
Nghost:        4297.67 ave        4342 max        4263 min
Histogram: 1 0 3 1 3 2 1 0 0 1
Neighs:        49937.2 ave       57463 max       43606 min
Histogram: 2 0 2 2 1 0 2 1 1 1

Total # of neighbors = 599247
Ave neighs/atom = 372.66604
Ave special neighs/atom = 1.8656716
Neighbor list builds = 84
Dangerous builds = 0
PPPM initialization ...
  extracting TIP4P info from pair style
  using 12-bit tables for long-range coulomb (../kspace.cpp:342)
  G vector (1/distance) = 0.31041691
  grid = 24 24 24
  stencil order = 5
  estimated absolute RMS force accuracy = 0.003755669
  estimated relative force accuracy = 1.1310086e-05
  using double precision KISS FFT
  3d grid and FFT values/proc = 5415 1152
Generated 0 of 6 mixed pair_coeff terms from arithmetic mixing rule
Setting up Verlet run ...
  Unit style    : real
  Current step  : 5040000
  Time step     : 0.5
Per MPI rank memory allocation (min/avg/max) = 8.661 | 8.666 | 8.67 Mbytes
   Step        Density          Temp          Press          TotEng    
   5040000   1.1145284      306.96468     -477.52941     -13905.491    
   5050000   1.1145284      305.86374     -701.85648     -13868.719    
Loop time of 31.6944 on 12 procs for 10000 steps with 1608 atoms

Performance: 13.630 ns/day, 1.761 hours/ns, 315.513 timesteps/s
93.8% CPU use with 12 MPI tasks x no OpenMP threads

MPI task timing breakdown:
Section |  min time  |  avg time  |  max time  |%varavg| %total
---------------------------------------------------------------
Pair    | 17.289     | 19.228     | 21.073     |  25.4 | 60.67
Bond    | 0.0019166  | 0.0038259  | 0.0050859  |   1.3 |  0.01
Kspace  | 7.6247     | 9.4306     | 11.332     |  35.7 | 29.75
Neigh   | 0.42946    | 0.42964    | 0.4299     |   0.0 |  1.36
Comm    | 1.3031     | 1.3426     | 1.3819     |   2.2 |  4.24
Output  | 6.4902e-05 | 8.4611e-05 | 0.00028475 |   0.0 |  0.00
Modify  | 1.083      | 1.0883     | 1.0962     |   0.3 |  3.43
Other   |            | 0.1709     |            |       |  0.54

Nlocal:            134 ave         145 max         119 min
Histogram: 1 1 1 1 0 1 3 0 1 3
Nghost:         4282.5 ave        4313 max        4238 min
Histogram: 1 1 0 1 1 1 2 1 3 1
Neighs:        49954.9 ave       55789 max       43841 min
Histogram: 2 1 1 0 1 0 3 2 1 1

Total # of neighbors = 599459
Ave neighs/atom = 372.79789
Ave special neighs/atom = 1.8656716
Neighbor list builds = 203
Dangerous builds = 0
PPPM initialization ...
  extracting TIP4P info from pair style
  using 12-bit tables for long-range coulomb (../kspace.cpp:342)
  G vector (1/distance) = 0.31041691
  grid = 24 24 24
  stencil order = 5
  estimated absolute RMS force accuracy = 0.003755669
  estimated relative force accuracy = 1.1310086e-05
  using double precision KISS FFT
  3d grid and FFT values/proc = 5415 1152
Generated 0 of 6 mixed pair_coeff terms from arithmetic mixing rule
Setting up Verlet run ...
  Unit style    : real
  Current step  : 5050000
  Time step     : 1
Per MPI rank memory allocation (min/avg/max) = 8.661 | 8.666 | 8.67 Mbytes
   Step        Density          Temp          Press          TotEng    
   5050000   1.1145284      305.86374     -706.26422     -13868.719    
   5100000   1.1145284      297.17864      361.72367     -13936.195    
   5200000   1.1145284      303.5609       435.6144      -13879.616    
   5300000   1.1145284      280.90331     -316.85802     -13951.883    
   5400000   1.1145284      296.23635     -829.66878     -13993.272    
   5500000   1.1145284      307.89987      394.09745     -13869.367    
   5600000   1.1145284      300.94704     -244.19751     -13894.262    
   5700000   1.1145284      293.11984     -836.29256     -13939.467    
   5800000   1.1145284      301.38743     -253.95305     -13958.249    
   5900000   1.1145284      293.84682      99.120393     -13933.378    
   6000000   1.1145284      296.35158     -449.45821     -13951.991    
   6100000   1.1145284      302.96849     -143.01674     -13949.637    
   6200000   1.1145284      291.15259     -518.46704     -13932.537    
   6300000   1.1145284      301.31282      500.65741     -13888.633    
   6400000   1.1145284      292.96841     -508.70436     -13853.511    
   6500000   1.1145284      290.08279      969.28979     -13930.086    
   6600000   1.1145284      288.74497     -1160.8536     -13975.14     
   6700000   1.1145284      298.57819      686.39186     -13966.009    
   6800000   1.1145284      290.59376     -233.49794     -13909.706    
   6900000   1.1145284      285.20151      999.77017     -13912.574    
   7000000   1.1145284      302.67205      919.92494     -13936.247    
   7100000   1.1145284      303.11956      39.07482      -13912.468    
   7200000   1.1145284      297.10304     -448.56294     -13911.671    
   7300000   1.1145284      285.69794     -265.42816     -13959.625    
   7400000   1.1145284      291.75639     -1378.0138     -14023.201    
   7500000   1.1145284      284.44281     -784.64739     -13936.361    
   7550000   1.1145284      309.206       -83.957621     -13931.779    
Loop time of 8100.75 on 12 procs for 2500000 steps with 1608 atoms

Performance: 26.664 ns/day, 0.900 hours/ns, 308.613 timesteps/s
93.4% CPU use with 12 MPI tasks x no OpenMP threads

MPI task timing breakdown:
Section |  min time  |  avg time  |  max time  |%varavg| %total
---------------------------------------------------------------
Pair    | 4467.3     | 4834.8     | 5100.2     | 329.3 | 59.68
Bond    | 0.51026    | 0.95556    | 1.2391     |  18.3 |  0.01
Kspace  | 2122.4     | 2386.7     | 2748.5     | 468.4 | 29.46
Neigh   | 213.05     | 213.14     | 213.28     |   0.5 |  2.63
Comm    | 342.21     | 345.86     | 352.13     |  17.8 |  4.27
Output  | 0.11       | 0.11033    | 0.11381    |   0.3 |  0.00
Modify  | 275.41     | 276.28     | 278.25     |   5.3 |  3.41
Other   |            | 42.92      |            |       |  0.53

Nlocal:            134 ave         148 max         118 min
Histogram: 1 0 1 1 2 2 0 4 0 1
Nghost:        4317.67 ave        4389 max        4267 min
Histogram: 3 0 1 3 1 1 1 0 1 1
Neighs:        49923.6 ave       55582 max       42433 min
Histogram: 1 0 1 0 2 2 1 4 0 1

Total # of neighbors = 599083
Ave neighs/atom = 372.56405
Ave special neighs/atom = 1.8656716
Neighbor list builds = 100898
Dangerous builds = 0

CITE-CITE-CITE-CITE-CITE-CITE-CITE-CITE-CITE-CITE-CITE-CITE-CITE

Your simulation uses code contributions which should be cited:
- fix ave/ordern command:
The log file lists these citations in BibTeX format.

CITE-CITE-CITE-CITE-CITE-CITE-CITE-CITE-CITE-CITE-CITE-CITE-CITE

PPPM initialization ...
  extracting TIP4P info from pair style
  using 12-bit tables for long-range coulomb (../kspace.cpp:342)
  G vector (1/distance) = 0.31041691
  grid = 24 24 24
  stencil order = 5
  estimated absolute RMS force accuracy = 0.003755669
  estimated relative force accuracy = 1.1310086e-05
  using double precision KISS FFT
  3d grid and FFT values/proc = 5415 1152
Generated 0 of 6 mixed pair_coeff terms from arithmetic mixing rule
Setting up Verlet run ...
  Unit style    : real
  Current step  : 0
  Time step     : 1
Per MPI rank memory allocation (min/avg/max) = 14.4 | 14.41 | 14.41 Mbytes
   Step        Density          Temp          Press          TotEng    
         0   1.1145284      309.206       -84.200829     -13931.779    
    100000   1.1145284      286.86086      749.61972     -13946.638    
    200000   1.1145284      300.27797      1035.1454     -13847.167    
    250000   1.1145284      294.85482      875.17815     -13910.426    
Loop time of 1279.41 on 12 procs for 250000 steps with 1608 atoms

Performance: 16.883 ns/day, 1.422 hours/ns, 195.403 timesteps/s
93.5% CPU use with 12 MPI tasks x no OpenMP threads

MPI task timing breakdown:
Section |  min time  |  avg time  |  max time  |%varavg| %total
---------------------------------------------------------------
Pair    | 725.84     | 787.01     | 834.15     | 132.7 | 61.51
Bond    | 3.3355     | 3.4815     | 3.5404     |   2.7 |  0.27
Kspace  | 305.91     | 353.32     | 414.38     | 198.7 | 27.62
Neigh   | 21.367     | 21.378     | 21.392     |   0.1 |  1.67
Comm    | 35.636     | 35.869     | 36.292     |   3.2 |  2.80
Output  | 0.072981   | 0.073292   | 0.073629   |   0.1 |  0.01
Modify  | 73.18      | 73.302     | 73.489     |   1.1 |  5.73
Other   |            | 4.967      |            |       |  0.39

Nlocal:            134 ave         143 max         124 min
Histogram: 1 1 1 1 1 1 2 2 1 1
Nghost:        4273.33 ave        4317 max        4226 min
Histogram: 2 1 2 0 1 0 1 1 1 3
Neighs:        49950.3 ave       53675 max       45623 min
Histogram: 1 1 2 1 1 1 0 2 0 3

Total # of neighbors = 599404
Ave neighs/atom = 372.76368
Ave special neighs/atom = 1.8656716
Neighbor list builds = 10111
Dangerous builds = 0
PPPM initialization ...
  extracting TIP4P info from pair style
  using 12-bit tables for long-range coulomb (../kspace.cpp:342)
  G vector (1/distance) = 0.31041691
  grid = 24 24 24
  stencil order = 5
  estimated absolute RMS force accuracy = 0.003755669
  estimated relative force accuracy = 1.1310086e-05
  using double precision KISS FFT
  3d grid and FFT values/proc = 5415 1152
Generated 0 of 6 mixed pair_coeff terms from arithmetic mixing rule
Setting up Verlet run ...
  Unit style    : real
  Current step  : 250000
  Time step     : 1
Per MPI rank memory allocation (min/avg/max) = 14.4 | 14.41 | 14.41 Mbytes
   Step        Density          Temp          Press          TotEng    
    250000   1.1145284      294.85482      874.92726     -13910.426    
    300000   1.1145284      315.12202     -19.785313     -13872.634    
    400000   1.1145284      295.1377       1631.9791     -13950.081    
    500000   1.1145284      293.516        364.86111     -13899.2      
Loop time of 1289.26 on 12 procs for 250000 steps with 1608 atoms

Performance: 16.754 ns/day, 1.433 hours/ns, 193.909 timesteps/s
93.2% CPU use with 12 MPI tasks x no OpenMP threads

MPI task timing breakdown:
Section |  min time  |  avg time  |  max time  |%varavg| %total
---------------------------------------------------------------
Pair    | 730.02     | 788.01     | 855.5      | 151.6 | 61.12
Bond    | 3.336      | 3.4737     | 3.5354     |   2.8 |  0.27
Kspace  | 294.21     | 362        | 420.22     | 224.3 | 28.08
Neigh   | 21.347     | 21.359     | 21.374     |   0.1 |  1.66
Comm    | 35.591     | 35.894     | 36.388     |   3.5 |  2.78
Output  | 0.10642    | 0.10669    | 0.10729    |   0.1 |  0.01
Modify  | 73.33      | 73.443     | 73.571     |   0.9 |  5.70
Other   |            | 4.966      |            |       |  0.39

Nlocal:            134 ave         143 max         123 min
Histogram: 1 0 0 1 2 3 2 0 2 1
Nghost:        4314.33 ave        4357 max        4261 min
Histogram: 1 1 3 0 0 1 1 1 1 3
Neighs:        49919.6 ave       54504 max       45296 min
Histogram: 1 1 1 1 1 3 1 2 0 1

Total # of neighbors = 599035
Ave neighs/atom = 372.5342
Ave special neighs/atom = 1.8656716
Neighbor list builds = 10074
Dangerous builds = 0
PPPM initialization ...
  extracting TIP4P info from pair style
  using 12-bit tables for long-range coulomb (../kspace.cpp:342)
  G vector (1/distance) = 0.31041691
  grid = 24 24 24
  stencil order = 5
  estimated absolute RMS force accuracy = 0.003755669
  estimated relative force accuracy = 1.1310086e-05
  using double precision KISS FFT
  3d grid and FFT values/proc = 5415 1152
Generated 0 of 6 mixed pair_coeff terms from arithmetic mixing rule
Setting up Verlet run ...
  Unit style    : real
  Current step  : 500000
  Time step     : 1
Per MPI rank memory allocation (min/avg/max) = 14.4 | 14.41 | 14.41 Mbytes
   Step        Density          Temp          Press          TotEng    
    500000   1.1145284      293.516        364.78232     -13899.2      
    600000   1.1145284      296.79037      737.9031      -13932.727    
    700000   1.1145284      300.1992      -386.57441     -13926.69     
    750000   1.1145284      292.3605       100.79148     -13984.648    
Loop time of 1283.62 on 12 procs for 250000 steps with 1608 atoms

Performance: 16.827 ns/day, 1.426 hours/ns, 194.761 timesteps/s
93.4% CPU use with 12 MPI tasks x no OpenMP threads

MPI task timing breakdown:
Section |  min time  |  avg time  |  max time  |%varavg| %total
---------------------------------------------------------------
Pair    | 732.51     | 787.88     | 847.31     | 135.3 | 61.38
Bond    | 3.3236     | 3.4708     | 3.5366     |   2.9 |  0.27
Kspace  | 297.04     | 356.76     | 411.99     | 201.6 | 27.79
Neigh   | 21.305     | 21.314     | 21.326     |   0.1 |  1.66
Comm    | 35.546     | 35.827     | 36.271     |   3.3 |  2.79
Output  | 0.071123   | 0.071295   | 0.071496   |   0.0 |  0.01
Modify  | 73.21      | 73.348     | 73.481     |   1.0 |  5.71
Other   |            | 4.946      |            |       |  0.39

Nlocal:            134 ave         142 max         128 min
Histogram: 2 2 2 1 1 0 0 1 1 2
Nghost:        4313.92 ave        4365 max        4249 min
Histogram: 1 0 0 2 2 2 1 2 1 1
Neighs:        49960.2 ave       56977 max       44115 min
Histogram: 1 3 1 1 2 0 1 0 1 2

Total # of neighbors = 599523
Ave neighs/atom = 372.83769
Ave special neighs/atom = 1.8656716
Neighbor list builds = 10067
Dangerous builds = 0
PPPM initialization ...
  extracting TIP4P info from pair style
  using 12-bit tables for long-range coulomb (../kspace.cpp:342)
  G vector (1/distance) = 0.31041691
  grid = 24 24 24
  stencil order = 5
  estimated absolute RMS force accuracy = 0.003755669
  estimated relative force accuracy = 1.1310086e-05
  using double precision KISS FFT
  3d grid and FFT values/proc = 5415 1152
Generated 0 of 6 mixed pair_coeff terms from arithmetic mixing rule
Setting up Verlet run ...
  Unit style    : real
  Current step  : 750000
  Time step     : 1
Per MPI rank memory allocation (min/avg/max) = 14.4 | 14.41 | 14.41 Mbytes
   Step        Density          Temp          Press          TotEng    
    750000   1.1145284      292.3605       101.00552     -13984.648    
    800000   1.1145284      299.26268      52.706093     -13886.167    
    900000   1.1145284      306.95686     -426.50329     -13919.607    
   1000000   1.1145284      303.83858     -322.07651     -13900.056    
Loop time of 1277.77 on 12 procs for 250000 steps with 1608 atoms

Performance: 16.904 ns/day, 1.420 hours/ns, 195.654 timesteps/s
93.5% CPU use with 12 MPI tasks x no OpenMP threads

MPI task timing breakdown:
Section |  min time  |  avg time  |  max time  |%varavg| %total
---------------------------------------------------------------
Pair    | 732.86     | 786.53     | 838        | 134.9 | 61.56
Bond    | 3.3279     | 3.4832     | 3.5452     |   3.0 |  0.27
Kspace  | 300.41     | 352.18     | 406.07     | 202.3 | 27.56
Neigh   | 21.25      | 21.259     | 21.275     |   0.1 |  1.66
Comm    | 35.517     | 35.818     | 36.305     |   3.6 |  2.80
Output  | 0.10642    | 0.10662    | 0.10691    |   0.0 |  0.01
Modify  | 73.344     | 73.435     | 73.566     |   0.8 |  5.75
Other   |            | 4.958      |            |       |  0.39

Nlocal:            134 ave         141 max         129 min
Histogram: 2 0 3 2 1 1 0 1 1 1
Nghost:        4315.17 ave        4361 max        4265 min
Histogram: 1 1 2 1 0 0 3 2 1 1
Neighs:        49917.9 ave       53169 max       46905 min
Histogram: 3 2 0 0 0 1 2 1 2 1

Total # of neighbors = 599015
Ave neighs/atom = 372.52177
Ave special neighs/atom = 1.8656716
Neighbor list builds = 10094
Dangerous builds = 0
PPPM initialization ...
  extracting TIP4P info from pair style
  using 12-bit tables for long-range coulomb (../kspace.cpp:342)
  G vector (1/distance) = 0.31041691
  grid = 24 24 24
  stencil order = 5
  estimated absolute RMS force accuracy = 0.003755669
  estimated relative force accuracy = 1.1310086e-05
  using double precision KISS FFT
  3d grid and FFT values/proc = 5415 1152
Generated 0 of 6 mixed pair_coeff terms from arithmetic mixing rule
Setting up Verlet run ...
  Unit style    : real
  Current step  : 1000000
  Time step     : 1
Per MPI rank memory allocation (min/avg/max) = 14.4 | 14.41 | 14.41 Mbytes
   Step        Density          Temp          Press          TotEng    
   1000000   1.1145284      303.83858     -322.09231     -13900.056    
   1100000   1.1145284      310.02191      999.58387     -13886.112    
   1200000   1.1145284      291.04135      427.35793     -13831.944    
   1250000   1.1145284      295.00378     -343.04162     -13969.706    
Loop time of 1284.11 on 12 procs for 250000 steps with 1608 atoms

Performance: 16.821 ns/day, 1.427 hours/ns, 194.688 timesteps/s
93.4% CPU use with 12 MPI tasks x no OpenMP threads

MPI task timing breakdown:
Section |  min time  |  avg time  |  max time  |%varavg| %total
---------------------------------------------------------------
Pair    | 740.19     | 788.26     | 847.76     | 133.1 | 61.39
Bond    | 3.3159     | 3.4894     | 3.5788     |   3.3 |  0.27
Kspace  | 296.81     | 356.59     | 404.91     | 198.5 | 27.77
Neigh   | 21.334     | 21.344     | 21.353     |   0.1 |  1.66
Comm    | 35.569     | 35.875     | 36.337     |   3.6 |  2.79
Output  | 0.070807   | 0.071353   | 0.071607   |   0.1 |  0.01
Modify  | 73.373     | 73.502     | 73.639     |   1.0 |  5.72
Other   |            | 4.974      |            |       |  0.39

Nlocal:            134 ave         141 max         124 min
Histogram: 1 1 1 0 1 2 0 1 3 2
Nghost:         4335.5 ave        4383 max        4258 min
Histogram: 1 1 0 0 1 2 2 1 0 4
Neighs:        49927.8 ave       55812 max       43209 min
Histogram: 1 0 0 2 3 2 1 1 1 1

Total # of neighbors = 599134
Ave neighs/atom = 372.59577
Ave special neighs/atom = 1.8656716
Neighbor list builds = 10081
Dangerous builds = 0
PPPM initialization ...
  extracting TIP4P info from pair style
  using 12-bit tables for long-range coulomb (../kspace.cpp:342)
  G vector (1/distance) = 0.31041691
  grid = 24 24 24
  stencil order = 5
  estimated absolute RMS force accuracy = 0.003755669
  estimated relative force accuracy = 1.1310086e-05
  using double precision KISS FFT
  3d grid and FFT values/proc = 5415 1152
Generated 0 of 6 mixed pair_coeff terms from arithmetic mixing rule
Setting up Verlet run ...
  Unit style    : real
  Current step  : 1250000
  Time step     : 1
Per MPI rank memory allocation (min/avg/max) = 14.4 | 14.41 | 14.41 Mbytes
   Step        Density          Temp          Press          TotEng    
   1250000   1.1145284      295.00378     -343.02599     -13969.706    
   1300000   1.1145284      295.47232      929.03298     -13933.645    
   1400000   1.1145284      297.19261      168.35713     -13947.649    
   1500000   1.1145284      303.18748      497.74888     -13898.668    
Loop time of 1285.35 on 12 procs for 250000 steps with 1608 atoms

Performance: 16.805 ns/day, 1.428 hours/ns, 194.499 timesteps/s
93.3% CPU use with 12 MPI tasks x no OpenMP threads

MPI task timing breakdown:
Section |  min time  |  avg time  |  max time  |%varavg| %total
---------------------------------------------------------------
Pair    | 733.48     | 787.38     | 843.84     | 136.2 | 61.26
Bond    | 3.3522     | 3.4825     | 3.5376     |   2.5 |  0.27
Kspace  | 301.68     | 358.63     | 412.37     | 202.4 | 27.90
Neigh   | 21.467     | 21.477     | 21.491     |   0.1 |  1.67
Comm    | 35.547     | 35.83      | 36.305     |   3.4 |  2.79
Output  | 0.10673    | 0.10711    | 0.10735    |   0.0 |  0.01
Modify  | 73.359     | 73.491     | 73.62      |   1.0 |  5.72
Other   |            | 4.958      |            |       |  0.39

Nlocal:            134 ave         146 max         122 min
Histogram: 1 2 0 2 1 1 1 2 0 2
Nghost:        4289.58 ave        4341 max        4225 min
Histogram: 1 1 0 1 2 2 0 1 3 1
Neighs:        49967.9 ave       55316 max       45560 min
Histogram: 3 0 1 3 1 0 1 0 1 2

Total # of neighbors = 599615
Ave neighs/atom = 372.8949
Ave special neighs/atom = 1.8656716
Neighbor list builds = 10116
Dangerous builds = 0
PPPM initialization ...
  extracting TIP4P info from pair style
  using 12-bit tables for long-range coulomb (../kspace.cpp:342)
  G vector (1/distance) = 0.31041691
  grid = 24 24 24
  stencil order = 5
  estimated absolute RMS force accuracy = 0.003755669
  estimated relative force accuracy = 1.1310086e-05
  using double precision KISS FFT
  3d grid and FFT values/proc = 5415 1152
Generated 0 of 6 mixed pair_coeff terms from arithmetic mixing rule
Setting up Verlet run ...
  Unit style    : real
  Current step  : 1500000
  Time step     : 1
Per MPI rank memory allocation (min/avg/max) = 14.4 | 14.41 | 14.41 Mbytes
   Step        Density          Temp          Press          TotEng    
   1500000   1.1145284      303.18748      497.7196      -13898.668    
   1600000   1.1145284      294.72421     -139.899       -13945.483    
   1700000   1.1145284      287.73373      50.947282     -13999.948    
   1750000   1.1145284      302.1908       870.00903     -13921.795    
Loop time of 1278.99 on 12 procs for 250000 steps with 1608 atoms

Performance: 16.888 ns/day, 1.421 hours/ns, 195.466 timesteps/s
93.6% CPU use with 12 MPI tasks x no OpenMP threads

MPI task timing breakdown:
Section |  min time  |  avg time  |  max time  |%varavg| %total
---------------------------------------------------------------
Pair    | 739.17     | 787.81     | 835.89     | 122.8 | 61.60
Bond    | 3.3781     | 3.4974     | 3.5493     |   2.4 |  0.27
Kspace  | 303.77     | 351.82     | 400.66     | 184.2 | 27.51
Neigh   | 21.378     | 21.391     | 21.405     |   0.1 |  1.67
Comm    | 35.654     | 35.911     | 36.345     |   3.5 |  2.81
Output  | 0.071413   | 0.071674   | 0.071912   |   0.1 |  0.01
Modify  | 73.373     | 73.509     | 73.676     |   1.0 |  5.75
Other   |            | 4.984      |            |       |  0.39

Nlocal:            134 ave         143 max         123 min
Histogram: 1 2 1 2 0 0 0 1 2 3
Nghost:        4295.33 ave        4350 max        4239 min
Histogram: 1 0 1 3 1 2 1 1 1 1
Neighs:        49926.8 ave       57216 max       43668 min
Histogram: 1 2 1 2 2 0 0 2 0 2

Total # of neighbors = 599122
Ave neighs/atom = 372.58831
Ave special neighs/atom = 1.8656716
Neighbor list builds = 10126
Dangerous builds = 0
PPPM initialization ...
  extracting TIP4P info from pair style
  using 12-bit tables for long-range coulomb (../kspace.cpp:342)
  G vector (1/distance) = 0.31041691
  grid = 24 24 24
  stencil order = 5
  estimated absolute RMS force accuracy = 0.003755669
  estimated relative force accuracy = 1.1310086e-05
  using double precision KISS FFT
  3d grid and FFT values/proc = 5415 1152
Generated 0 of 6 mixed pair_coeff terms from arithmetic mixing rule
Setting up Verlet run ...
  Unit style    : real
  Current step  : 1750000
  Time step     : 1
Per MPI rank memory allocation (min/avg/max) = 14.4 | 14.41 | 14.41 Mbytes
   Step        Density          Temp          Press          TotEng    
   1750000   1.1145284      302.1908       870.11793     -13921.795    
   1800000   1.1145284      294.48568     -390.8849      -13904.918    
   1900000   1.1145284      286.45973     -919.594       -14036.439    
   2000000   1.1145284      299.17857      200.3083      -13937.058    
Loop time of 1269 on 12 procs for 250000 steps with 1608 atoms

Performance: 17.021 ns/day, 1.410 hours/ns, 197.006 timesteps/s
93.9% CPU use with 12 MPI tasks x no OpenMP threads

MPI task timing breakdown:
Section |  min time  |  avg time  |  max time  |%varavg| %total
---------------------------------------------------------------
Pair    | 738.12     | 785.4      | 826.22     | 106.8 | 61.89
Bond    | 3.3611     | 3.5161     | 3.5738     |   2.9 |  0.28
Kspace  | 303.32     | 344.44     | 391.93     | 161.9 | 27.14
Neigh   | 21.248     | 21.255     | 21.271     |   0.1 |  1.67
Comm    | 35.556     | 35.849     | 36.246     |   3.3 |  2.82
Output  | 0.10666    | 0.10687    | 0.10719    |   0.1 |  0.01
Modify  | 73.322     | 73.461     | 73.658     |   1.1 |  5.79
Other   |            | 4.974      |            |       |  0.39

Nlocal:            134 ave         145 max         120 min
Histogram: 1 1 0 1 2 0 2 3 1 1
Nghost:           4281 ave        4365 max        4206 min
Histogram: 1 2 1 1 0 3 2 0 1 1
Neighs:        49949.8 ave       57762 max       44583 min
Histogram: 1 3 0 2 3 1 0 0 1 1

Total # of neighbors = 599398
Ave neighs/atom = 372.75995
Ave special neighs/atom = 1.8656716
Neighbor list builds = 10068
Dangerous builds = 0
PPPM initialization ...
  extracting TIP4P info from pair style
  using 12-bit tables for long-range coulomb (../kspace.cpp:342)
  G vector (1/distance) = 0.31041691
  grid = 24 24 24
  stencil order = 5
  estimated absolute RMS force accuracy = 0.003755669
  estimated relative force accuracy = 1.1310086e-05
  using double precision KISS FFT
  3d grid and FFT values/proc = 5415 1152
Generated 0 of 6 mixed pair_coeff terms from arithmetic mixing rule
Setting up Verlet run ...
  Unit style    : real
  Current step  : 2000000
  Time step     : 1
Per MPI rank memory allocation (min/avg/max) = 14.4 | 14.41 | 14.41 Mbytes
   Step        Density          Temp          Press          TotEng    
   2000000   1.1145284      299.17857      200.40824     -13937.058    
   2100000   1.1145284      291.90989      1850.7984     -13877.98     
   2200000   1.1145284      286.72579      36.845607     -13986.697    
   2300000   1.1145284      304.03345     -733.9819      -13923.482    
   2400000   1.1145284      300.5061      -60.318582     -13947.869    
   2500000   1.1145284      292.04174     -286.79193     -13921.5      
   2600000   1.1145284      314.12297     -670.29079     -13888.68     
   2700000   1.1145284      296.54296     -469.35189     -13879.66     
   2800000   1.1145284      288.59418      1346.6469     -13955.616    
   2900000   1.1145284      292.25007     -655.38175     -13978.753    
   3000000   1.1145284      308.47825     -1161.0131     -13879.231    
Loop time of 5148.45 on 12 procs for 1000000 steps with 1608 atoms

Performance: 16.782 ns/day, 1.430 hours/ns, 194.233 timesteps/s
93.4% CPU use with 12 MPI tasks x no OpenMP threads

MPI task timing breakdown:
Section |  min time  |  avg time  |  max time  |%varavg| %total
---------------------------------------------------------------
Pair    | 2901.8     | 3161       | 3391.1     | 267.9 | 61.40
Bond    | 13.392     | 13.946     | 14.178     |   5.5 |  0.27
Kspace  | 1199.8     | 1431       | 1689.6     | 399.1 | 27.79
Neigh   | 85.21      | 85.248     | 85.302     |   0.2 |  1.66
Comm    | 142.46     | 143.39     | 145.1      |   6.4 |  2.79
Output  | 0.3556     | 0.35643    | 0.35738    |   0.1 |  0.01
Modify  | 293.25     | 293.74     | 294.38     |   1.9 |  5.71
Other   |            | 19.78      |            |       |  0.38

Nlocal:            134 ave         147 max         127 min
Histogram: 3 2 1 0 2 1 2 0 0 1
Nghost:        4300.75 ave        4365 max        4256 min
Histogram: 2 1 1 3 1 2 0 0 1 1
Neighs:        49942.1 ave       55140 max       45923 min
Histogram: 1 2 2 1 1 1 2 1 0 1

Total # of neighbors = 599305
Ave neighs/atom = 372.70211
Ave special neighs/atom = 1.8656716
Neighbor list builds = 40296
Dangerous builds = 0
