created by fftool

3340 atoms
2200 bonds
1100 angles
4 atom types
1 bond types
1 angle types
0.000000 32.173160 xlo xhi
0.000000 32.173160 ylo yhi
0.000000 32.173160 zlo zhi

Atoms

      1       1    1  -1.112800  3.060185e+01  1.148377e+01  1.218381e+01  # Ow water
      2       1    2   0.556400  3.064751e+01  1.061635e+01  1.250883e+01  # Hw water
      3       1    2   0.556400  3.067326e+01  1.147057e+01  1.125922e+01  # Hw water
      4       2    1  -1.112800  3.065414e+01  2.615083e+01  1.472353e+01  # Ow water
      5       2    2   0.556400  3.054533e+01  2.673384e+01  1.401051e+01  # Hw water
      6       2    2   0.556400  3.067324e+01  2.527878e+01  1.440841e+01  # Hw water
      7       3    1  -1.112800  2.882376e+01  1.815421e+01  8.725370e+00  # Ow water
      8       3    2   0.556400  2.941079e+01  1.847025e+01  8.080662e+00  # Hw water
      9       3    2   0.556400  2.801726e+01  1.860688e+01  8.656235e+00  # Hw water
     10       4    1  -1.112800  3.045428e+01  3.025188e+01  2.016199e+01  # Ow water
     11       4    2   0.556400  3.067320e+01  3.067233e+01  1.936484e+01  # Hw water
     12       4    2   0.556400  2.972020e+01  3.067319e+01  2.054115e+01  # Hw water
     13       5    1  -1.112800  2.765877e+01  1.473246e+01  1.706982e+01  # Ow water
     14       5    2   0.556400  2.761715e+01  1.565844e+01  1.710075e+01  # Hw water
     15       5    2   0.556400  2.798092e+01  1.446594e+01  1.624198e+01  # Hw water
     16       6    1  -1.112800  1.500234e+00  2.756085e+01  8.789673e+00  # Ow water
     17       6    2   0.556400  1.522994e+00  2.744070e+01  9.709013e+00  # Hw water
     18       6    2   0.556400  1.499602e+00  2.673346e+01  8.370674e+00  # Hw water
     19       7    1  -1.112800  2.397887e+01  3.063140e+01  2.172948e+01  # Ow water
     20       7    2   0.556400  2.485564e+01  3.067336e+01  2.202890e+01  # Hw water
     21       7    2   0.556400  2.371100e+01  2.974468e+01  2.168358e+01  # Hw water
     22       8    1  -1.112800  4.096437e+00  1.232627e+01  1.550039e+01  # Ow water
     23       8    2   0.556400  4.306503e+00  1.284574e+01  1.476136e+01  # Hw water
     24       8    2   0.556400  4.437086e+00  1.147165e+01  1.538323e+01  # Hw water
     25       9    1  -1.112800  1.500055e+00  2.076966e+01  1.653511e+01  # Ow water
     26       9    2   0.556400  1.605744e+00  2.089516e+01  1.562230e+01  # Hw water
     27       9    2   0.556400  1.611617e+00  1.987150e+01  1.673764e+01  # Hw water
     28      10    1  -1.112800  1.272011e+01  1.660607e+01  2.659457e+01  # Ow water
     29      10    2   0.556400  1.363071e+01  1.643615e+01  2.654893e+01  # Hw water
     30      10    2   0.556400  1.243395e+01  1.651878e+01  2.747243e+01  # Hw water
     31      11    1  -1.112800  2.486423e+01  7.229836e+00  1.583000e+00  # Ow water
     32      11    2   0.556400  2.431483e+01  7.976413e+00  1.552565e+00  # Hw water
     33      11    2   0.556400  2.575068e+01  7.497167e+00  1.529470e+00  # Hw water
     34      12    1  -1.112800  3.063498e+01  2.458110e+01  5.492725e+00  # Ow water
     35      12    2   0.556400  3.065210e+01  2.378531e+01  5.016738e+00  # Hw water
     36      12    2   0.556400  3.061573e+01  2.529427e+01  4.900142e+00  # Hw water
     37      13    1  -1.112800  7.793496e+00  1.148351e+01  7.122183e+00  # Ow water
     38      13    2   0.556400  7.836050e+00  1.066642e+01  6.685491e+00  # Hw water
     39      13    2   0.556400  8.054749e+00  1.215747e+01  6.541091e+00  # Hw water
     40      14    1  -1.112800  2.577692e+01  2.592617e+01  3.067375e+01  # Ow water
     41      14    2   0.556400  2.654289e+01  2.592286e+01  3.015084e+01  # Hw water
     42      14    2   0.556400  2.502932e+01  2.594121e+01  3.012511e+01  # Hw water
     43      15    1  -1.112800  4.529962e+00  1.759722e+00  1.400048e+01  # Ow water
     44      15    2   0.556400  4.038700e+00  1.497100e+00  1.325897e+01  # Hw water
     45      15    2   0.556400  3.963255e+00  1.851463e+00  1.472888e+01  # Hw water
     46      16    1  -1.112800  3.612634e+00  1.223005e+01  2.981377e+01  # Ow water
     47      16    2   0.556400  3.587296e+00  1.144727e+01  2.931703e+01  # Hw water
     48      16    2   0.556400  3.596089e+00  1.295923e+01  2.924092e+01  # Hw water
     49      17    1  -1.112800  2.571035e+00  1.367504e+01  3.684910e+00  # Ow water
     50      17    2   0.556400  1.735183e+00  1.327325e+01  3.677325e+00  # Hw water
     51      17    2   0.556400  3.138749e+00  1.321614e+01  3.112850e+00  # Hw water
     52      18    1  -1.112800  1.672785e+00  7.699458e+00  1.455657e+01  # Ow water
     53      18    2   0.556400  1.499180e+00  7.614893e+00  1.364946e+01  # Hw water
     54      18    2   0.556400  1.828969e+00  6.860591e+00  1.491996e+01  # Hw water
     55      19    1  -1.112800  3.804199e+00  7.339652e+00  2.008025e+01  # Ow water
     56      19    2   0.556400  3.740111e+00  7.492423e+00  2.099277e+01  # Hw water
     57      19    2   0.556400  3.639176e+00  8.129599e+00  1.962321e+01  # Hw water
     58      20    1  -1.112800  1.439100e+01  2.820804e+01  2.659128e+01  # Ow water
     59      20    2   0.556400  1.372458e+01  2.876297e+01  2.692002e+01  # Hw water
     60      20    2   0.556400  1.519988e+01  2.842996e+01  2.698702e+01  # Hw water
     61      21    1  -1.112800  1.721863e+01  3.486214e+00  2.323436e+01  # Ow water
     62      21    2   0.556400  1.631984e+01  3.628510e+00  2.305533e+01  # Hw water
     63      21    2   0.556400  1.745363e+01  3.937593e+00  2.400972e+01  # Hw water
     64      22    1  -1.112800  2.179359e+01  3.066907e+01  3.013742e+01  # Ow water
     65      22    2   0.556400  2.103663e+01  3.066483e+01  3.067327e+01  # Hw water
     66      22    2   0.556400  2.255051e+01  3.067330e+01  3.067333e+01  # Hw water
     67      23    1  -1.112800  6.785182e+00  1.067155e+01  1.437415e+01  # Ow water
     68      23    2   0.556400  6.432386e+00  9.953237e+00  1.484287e+01  # Hw water
     69      23    2   0.556400  7.288804e+00  1.035715e+01  1.366165e+01  # Hw water
     70      24    1  -1.112800  8.663689e+00  2.042370e+01  4.820108e+00  # Ow water
     71      24    2   0.556400  8.291370e+00  1.962919e+01  4.519662e+00  # Hw water
     72      24    2   0.556400  8.763193e+00  2.100689e+01  4.105871e+00  # Hw water
     73      25    1  -1.112800  2.434256e+01  1.198741e+01  2.078416e+01  # Ow water
     74      25    2   0.556400  2.357273e+01  1.147023e+01  2.078953e+01  # Hw water
     75      25    2   0.556400  2.495691e+01  1.163177e+01  2.138101e+01  # Hw water
     76      26    1  -1.112800  3.628220e+00  1.700053e+01  2.163131e+01  # Ow water
     77      26    2   0.556400  3.986741e+00  1.658476e+01  2.088382e+01  # Hw water
     78      26    2   0.556400  3.914473e+00  1.788220e+01  2.166056e+01  # Hw water
     79      27    1  -1.112800  3.054279e+01  2.010827e+01  3.008216e+01  # Ow water
     80      27    2   0.556400  3.067316e+01  2.081071e+01  3.067354e+01  # Hw water
     81      27    2   0.556400  3.059008e+01  1.930475e+01  3.054287e+01  # Hw water
     82      28    1  -1.112800  1.539955e+00  2.349196e+01  8.081565e+00  # Ow water
     83      28    2   0.556400  1.498171e+00  2.287733e+01  8.774837e+00  # Hw water
     84      28    2   0.556400  1.938503e+00  2.427240e+01  8.385236e+00  # Hw water
     85      29    1  -1.112800  1.889405e+01  9.771814e+00  1.083312e+01  # Ow water
     86      29    2   0.556400  1.870063e+01  1.049339e+01  1.028352e+01  # Hw water
     87      29    2   0.556400  1.981331e+01  9.658691e+00  1.088110e+01  # Hw water
     88      30    1  -1.112800  2.319406e+01  8.879129e+00  2.165722e+01  # Ow water
     89      30    2   0.556400  2.374824e+01  8.151861e+00  2.181250e+01  # Hw water
     90      30    2   0.556400  2.308160e+01  9.354714e+00  2.244546e+01  # Hw water
     91      31    1  -1.112800  2.695679e+01  5.384955e+00  2.107133e+00  # Ow water
     92      31    2   0.556400  2.632140e+01  5.170940e+00  2.747930e+00  # Hw water
     93      31    2   0.556400  2.702779e+01  4.688435e+00  1.498890e+00  # Hw water
     94      32    1  -1.112800  1.098678e+01  2.502308e+01  3.058794e+01  # Ow water
     95      32    2   0.556400  1.115721e+01  2.411544e+01  3.067324e+01  # Hw water
     96      32    2   0.556400  1.105893e+01  2.526772e+01  2.969627e+01  # Hw water
     97      33    1  -1.112800  1.217971e+01  2.901068e+01  2.451079e+01  # Ow water
     98      33    2   0.556400  1.169228e+01  2.850698e+01  2.511811e+01  # Hw water
     99      33    2   0.556400  1.296110e+01  2.856059e+01  2.429401e+01  # Hw water
    100      34    1  -1.112800  1.544804e+00  9.121198e+00  2.162698e+01  # Ow water
    101      34    2   0.556400  1.499878e+00  8.655457e+00  2.082623e+01  # Hw water
    102      34    2   0.556400  1.999490e+00  9.918615e+00  2.149459e+01  # Hw water
    103      35    1  -1.112800  1.357304e+01  1.513178e+01  2.368923e+01  # Ow water
    104      35    2   0.556400  1.281346e+01  1.526941e+01  2.420327e+01  # Hw water
    105      35    2   0.556400  1.425079e+01  1.569161e+01  2.398482e+01  # Hw water
    106      36    1  -1.112800  3.004584e+01  1.261502e+01  1.541856e+01  # Ow water
    107      36    2   0.556400  3.067372e+01  1.222230e+01  1.486028e+01  # Hw water
    108      36    2   0.556400  2.925676e+01  1.274778e+01  1.494966e+01  # Hw water
    109      37    1  -1.112800  1.212184e+01  1.173402e+01  1.746237e+01  # Ow water
    110      37    2   0.556400  1.299432e+01  1.156283e+01  1.719855e+01  # Hw water
    111      37    2   0.556400  1.188961e+01  1.259780e+01  1.721722e+01  # Hw water
    112      38    1  -1.112800  7.230931e+00  2.984465e+01  2.673481e+01  # Ow water
    113      38    2   0.556400  8.049418e+00  2.975629e+01  2.716191e+01  # Hw water
    114      38    2   0.556400  6.866293e+00  3.067336e+01  2.693587e+01  # Hw water
    115      39    1  -1.112800  2.128403e+01  1.976461e+01  8.647110e+00  # Ow water
    116      39    2   0.556400  2.117617e+01  2.068466e+01  8.691960e+00  # Hw water
    117      39    2   0.556400  2.218285e+01  1.956475e+01  8.536118e+00  # Hw water
    118      40    1  -1.112800  1.650417e+01  1.916713e+01  4.496857e+00  # Ow water
    119      40    2   0.556400  1.650102e+01  1.873738e+01  5.318709e+00  # Hw water
    120      40    2   0.556400  1.650864e+01  2.008508e+01  4.629120e+00  # Hw water
    121      41    1  -1.112800  1.523624e+01  1.194866e+01  1.052802e+01  # Ow water
    122      41    2   0.556400  1.615129e+01  1.179845e+01  1.051185e+01  # Hw water
    123      41    2   0.556400  1.481080e+01  1.121847e+01  1.091006e+01  # Hw water
    124      42    1  -1.112800  2.380960e+01  1.154325e+01  1.153700e+01  # Ow water
    125      42    2   0.556400  2.349397e+01  1.240000e+01  1.137423e+01  # Hw water
    126      42    2   0.556400  2.374904e+01  1.135967e+01  1.244407e+01  # Hw water
    127      43    1  -1.112800  1.945343e+01  2.779048e+01  2.426240e+01  # Ow water
    128      43    2   0.556400  2.013878e+01  2.725383e+01  2.394233e+01  # Hw water
    129      43    2   0.556400  1.956847e+01  2.792718e+01  2.517247e+01  # Hw water
    130      44    1  -1.112800  8.821047e+00  2.280805e+01  3.051244e+01  # Ow water
    131      44    2   0.556400  7.947986e+00  2.253785e+01  3.067021e+01  # Hw water
    132      44    2   0.556400  8.831397e+00  2.343144e+01  2.982583e+01  # Hw water
    133      45    1  -1.112800  4.203420e+00  2.041861e+00  2.570876e+01  # Ow water
    134      45    2   0.556400  4.369609e+00  1.589183e+00  2.491655e+01  # Hw water
    135      45    2   0.556400  3.709428e+00  1.499261e+00  2.627595e+01  # Hw water
    136      46    1  -1.112800  1.750247e+00  1.031607e+01  3.066760e+01  # Ow water
    137      46    2   0.556400  1.499859e+00  9.931062e+00  2.986186e+01  # Hw water
    138      46    2   0.556400  1.499041e+00  1.120882e+01  3.067379e+01  # Hw water
    139      47    1  -1.112800  7.556579e+00  9.370511e+00  3.066590e+01  # Ow water
    140      47    2   0.556400  7.717524e+00  8.457174e+00  3.067326e+01  # Hw water
    141      47    2   0.556400  8.330412e+00  9.817806e+00  3.041841e+01  # Hw water
    142      48    1  -1.112800  2.652819e+01  2.253122e+01  1.880296e+00  # Ow water
    143      48    2   0.556400  2.567049e+01  2.246955e+01  1.532895e+00  # Hw water
    144      48    2   0.556400  2.696344e+01  2.325635e+01  1.499660e+00  # Hw water
    145      49    1  -1.112800  1.348253e+01  1.028998e+01  2.186004e+01  # Ow water
    146      49    2   0.556400  1.338452e+01  9.520081e+00  2.236778e+01  # Hw water
    147      49    2   0.556400  1.307160e+01  1.017085e+01  2.103719e+01  # Hw water
    148      50    1  -1.112800  2.042401e+01  2.079982e+01  1.587953e+00  # Ow water
    149      50    2   0.556400  2.007512e+01  1.994500e+01  1.500224e+00  # Hw water
    150      50    2   0.556400  1.973369e+01  2.141862e+01  1.561748e+00  # Hw water
    151      51    1  -1.112800  5.337673e+00  1.575860e+00  1.679888e+01  # Ow water
    152      51    2   0.556400  5.979195e+00  1.500145e+00  1.746436e+01  # Hw water
    153      51    2   0.556400  4.537947e+00  1.860187e+00  1.717270e+01  # Hw water
    154      52    1  -1.112800  1.694699e+01  3.812690e+00  2.040518e+01  # Ow water
    155      52    2   0.556400  1.672323e+01  3.693185e+00  1.951311e+01  # Hw water
    156      52    2   0.556400  1.776858e+01  3.416308e+00  2.057259e+01  # Hw water
    157      53    1  -1.112800  8.723441e+00  3.005190e+01  3.452908e+00  # Ow water
    158      53    2   0.556400  9.332141e+00  3.067481e+01  3.771667e+00  # Hw water
    159      53    2   0.556400  8.535200e+00  2.943567e+01  4.119969e+00  # Hw water
    160      54    1  -1.112800  2.410459e+00  1.022309e+01  1.869545e+01  # Ow water
    161      54    2   0.556400  2.876277e+00  1.000849e+01  1.792273e+01  # Hw water
    162      54    2   0.556400  1.501482e+00  1.011285e+01  1.854799e+01  # Hw water
    163      55    1  -1.112800  9.862811e+00  1.129209e+01  1.594294e+01  # Ow water
    164      55    2   0.556400  9.323114e+00  1.190350e+01  1.638458e+01  # Hw water
    165      55    2   0.556400  9.333699e+00  1.072449e+01  1.543499e+01  # Hw water
    166      56    1  -1.112800  2.617526e+01  1.590388e+01  1.423865e+01  # Ow water
    167      56    2   0.556400  2.594141e+01  1.644778e+01  1.495253e+01  # Hw water
    168      56    2   0.556400  2.591616e+01  1.503162e+01  1.441798e+01  # Hw water
    169      57    1  -1.112800  2.432861e+01  5.388430e+00  7.076983e+00  # Ow water
    170      57    2   0.556400  2.450881e+01  5.992758e+00  7.757024e+00  # Hw water
    171      57    2   0.556400  2.412432e+01  4.562089e+00  7.445179e+00  # Hw water
    172      58    1  -1.112800  4.972731e+00  7.320485e+00  2.408643e+01  # Ow water
    173      58    2   0.556400  4.187876e+00  7.395088e+00  2.359799e+01  # Hw water
    174      58    2   0.556400  5.697526e+00  7.326381e+00  2.350783e+01  # Hw water
    175      59    1  -1.112800  3.424864e+00  2.166273e+01  2.366495e+01  # Ow water
    176      59    2   0.556400  3.450118e+00  2.198073e+01  2.453580e+01  # Hw water
    177      59    2   0.556400  3.489265e+00  2.073757e+01  2.367272e+01  # Hw water
    178      60    1  -1.112800  2.310630e+01  2.003880e+00  2.595339e+01  # Ow water
    179      60    2   0.556400  2.388595e+01  1.504703e+00  2.600906e+01  # Hw water
    180      60    2   0.556400  2.244659e+01  1.499938e+00  2.553991e+01  # Hw water
    181      61    1  -1.112800  2.962323e+01  4.172801e+00  7.325449e+00  # Ow water
    182      61    2   0.556400  3.007046e+01  3.867017e+00  6.572704e+00  # Hw water
    183      61    2   0.556400  2.874158e+01  3.886332e+00  7.297693e+00  # Hw water
    184      62    1  -1.112800  5.883993e+00  3.647594e+00  5.985227e+00  # Ow water
    185      62    2   0.556400  6.550441e+00  3.881257e+00  5.384071e+00  # Hw water
    186      62    2   0.556400  6.139082e+00  3.898339e+00  6.840912e+00  # Hw water
    187      63    1  -1.112800  1.902507e+01  8.051822e+00  2.055584e+01  # Ow water
    188      63    2   0.556400  1.811053e+01  7.938126e+00  2.065991e+01  # Hw water
    189      63    2   0.556400  1.947067e+01  7.600964e+00  2.123283e+01  # Hw water
    190      64    1  -1.112800  6.453375e+00  1.499229e+00  1.862523e+00  # Ow water
    191      64    2   0.556400  7.331166e+00  1.616989e+00  1.587283e+00  # Hw water
    192      64    2   0.556400  5.923885e+00  2.167942e+00  1.498375e+00  # Hw water
    193      65    1  -1.112800  1.976208e+01  3.653120e+00  9.816452e+00  # Ow water
    194      65    2   0.556400  1.892454e+01  3.750519e+00  9.430216e+00  # Hw water
    195      65    2   0.556400  1.969905e+01  3.799659e+00  1.073007e+01  # Hw water
    196      66    1  -1.112800  1.220853e+01  1.499992e+00  2.609311e+01  # Ow water
    197      66    2   0.556400  1.224714e+01  2.313628e+00  2.653656e+01  # Hw water
    198      66    2   0.556400  1.277219e+01  1.523184e+00  2.535698e+01  # Hw water
    199      67    1  -1.112800  2.472445e+00  1.512307e+01  2.452551e+01  # Ow water
    200      67    2   0.556400  2.425184e+00  1.559169e+01  2.372658e+01  # Hw water
    201      67    2   0.556400  1.687714e+00  1.464442e+01  2.464891e+01  # Hw water
    202      68    1  -1.112800  1.553430e+01  2.465403e+01  2.389329e+01  # Ow water
    203      68    2   0.556400  1.502225e+01  2.435423e+01  2.460608e+01  # Hw water
    204      68    2   0.556400  1.504290e+01  2.526299e+01  2.339545e+01  # Hw water
    205      69    1  -1.112800  1.056665e+01  6.648916e+00  1.080943e+01  # Ow water
    206      69    2   0.556400  1.060772e+01  5.996808e+00  1.015125e+01  # Hw water
    207      69    2   0.556400  1.121689e+01  7.290391e+00  1.064868e+01  # Hw water
    208      70    1  -1.112800  1.296958e+01  7.878945e+00  3.013452e+01  # Ow water
    209      70    2   0.556400  1.325682e+01  8.581653e+00  3.066728e+01  # Hw water
    210      70    2   0.556400  1.268710e+01  7.179057e+00  3.067351e+01  # Hw water
    211      71    1  -1.112800  1.509572e+00  1.131344e+01  2.045199e+00  # Ow water
    212      71    2   0.556400  1.503564e+00  1.055093e+01  1.517301e+00  # Hw water
    213      71    2   0.556400  1.500056e+00  1.206474e+01  1.501508e+00  # Hw water
    214      72    1  -1.112800  2.280186e+01  1.128650e+01  1.499959e+00  # Ow water
    215      72    2   0.556400  2.271034e+01  1.185453e+01  2.227358e+00  # Hw water
    216      72    2   0.556400  2.306137e+01  1.044661e+01  1.795566e+00  # Hw water
    217      73    1  -1.112800  5.399094e+00  1.125704e+01  1.954147e+01  # Ow water
    218      73    2   0.556400  4.477774e+00  1.126392e+01  1.964760e+01  # Hw water
    219      73    2   0.556400  5.766763e+00  1.197862e+01  1.999344e+01  # Hw water
    220      74    1  -1.112800  2.116736e+01  1.887865e+01  2.407127e+01  # Ow water
    221      74    2   0.556400  2.146176e+01  1.802802e+01  2.429466e+01  # Hw water
    222      74    2   0.556400  2.025976e+01  1.894728e+01  2.424930e+01  # Hw water
    223      75    1  -1.112800  2.809630e+01  1.876133e+00  3.066760e+01  # Ow water
    224      75    2   0.556400  2.802326e+01  2.800673e+00  3.067320e+01  # Hw water
    225      75    2   0.556400  2.724857e+01  1.500000e+00  3.067292e+01  # Hw water
    226      76    1  -1.112800  1.697726e+01  2.383964e+01  2.759938e+01  # Ow water
    227      76    2   0.556400  1.731120e+01  2.470429e+01  2.763092e+01  # Hw water
    228      76    2   0.556400  1.765677e+01  2.323952e+01  2.779496e+01  # Hw water
    229      77    1  -1.112800  1.430425e+01  2.369970e+01  1.573142e+00  # Ow water
    230      77    2   0.556400  1.402402e+01  2.458078e+01  1.500260e+00  # Hw water
    231      77    2   0.556400  1.509509e+01  2.366683e+01  2.056499e+00  # Hw water
    232      78    1  -1.112800  1.564475e+01  2.429138e+01  1.419418e+01  # Ow water
    233      78    2   0.556400  1.561430e+01  2.502854e+01  1.475615e+01  # Hw water
    234      78    2   0.556400  1.642966e+01  2.431235e+01  1.370061e+01  # Hw water
    235      79    1  -1.112800  1.466310e+01  4.911074e+00  2.161244e+01  # Ow water
    236      79    2   0.556400  1.485603e+01  5.220565e+00  2.075971e+01  # Hw water
    237      79    2   0.556400  1.375044e+01  4.975121e+00  2.176436e+01  # Hw water
    238      80    1  -1.112800  1.354092e+01  1.271821e+01  2.013633e+01  # Ow water
    239      80    2   0.556400  1.283752e+01  1.314464e+01  1.970794e+01  # Hw water
    240      80    2   0.556400  1.417097e+01  1.245623e+01  1.950820e+01  # Hw water
    241      81    1  -1.112800  3.000631e+01  2.798541e+01  4.791279e+00  # Ow water
    242      81    2   0.556400  2.928754e+01  2.830853e+01  4.302298e+00  # Hw water
    243      81    2   0.556400  3.067351e+01  2.770639e+01  4.210650e+00  # Hw water
    244      82    1  -1.112800  1.917653e+00  1.485095e+01  1.577766e+00  # Ow water
    245      82    2   0.556400  2.808406e+00  1.509708e+01  1.499537e+00  # Hw water
    246      82    2   0.556400  1.499652e+00  1.539958e+01  2.197789e+00  # Hw water
    247      83    1  -1.112800  1.787471e+01  1.500000e+00  1.735968e+01  # Ow water
    248      83    2   0.556400  1.737137e+01  2.154401e+00  1.693713e+01  # Hw water
    249      83    2   0.556400  1.769311e+01  1.510803e+00  1.826910e+01  # Hw water
    250      84    1  -1.112800  1.106348e+01  3.594923e+00  1.239241e+01  # Ow water
    251      84    2   0.556400  1.096134e+01  3.582633e+00  1.331413e+01  # Hw water
    252      84    2   0.556400  1.046246e+01  4.197431e+00  1.202376e+01  # Hw water
    253      85    1  -1.112800  2.001587e+01  3.054108e+01  2.767806e+01  # Ow water
    254      85    2   0.556400  2.092661e+01  3.067371e+01  2.779255e+01  # Hw water
    255      85    2   0.556400  1.958113e+01  3.067353e+01  2.848652e+01  # Hw water
    256      86    1  -1.112800  1.686938e+01  3.945106e+00  1.232102e+01  # Ow water
    257      86    2   0.556400  1.689748e+01  4.353415e+00  1.148877e+01  # Hw water
    258      86    2   0.556400  1.772205e+01  3.666476e+00  1.255653e+01  # Hw water
    259      87    1  -1.112800  1.118436e+01  1.489754e+01  9.587130e+00  # Ow water
    260      87    2   0.556400  1.039728e+01  1.531880e+01  9.335770e+00  # Hw water
    261      87    2   0.556400  1.176499e+01  1.487267e+01  8.864361e+00  # Hw water
    262      88    1  -1.112800  2.878719e+01  2.821300e+01  2.767005e+01  # Ow water
    263      88    2   0.556400  2.786526e+01  2.813876e+01  2.760174e+01  # Hw water
    264      88    2   0.556400  2.918718e+01  2.750311e+01  2.722710e+01  # Hw water
    265      89    1  -1.112800  1.902924e+01  1.071191e+01  1.570818e+01  # Ow water
    266      89    2   0.556400  1.899384e+01  1.120875e+01  1.492586e+01  # Hw water
    267      89    2   0.556400  1.824474e+01  1.022589e+01  1.580034e+01  # Hw water
    268      90    1  -1.112800  1.800638e+01  1.301960e+01  8.759906e+00  # Ow water
    269      90    2   0.556400  1.853879e+01  1.310406e+01  9.514592e+00  # Hw water
    270      90    2   0.556400  1.755696e+01  1.381672e+01  8.609039e+00  # Hw water
    271      91    1  -1.112800  2.046641e+00  1.879296e+01  2.305037e+01  # Ow water
    272      91    2   0.556400  1.521786e+00  1.806752e+01  2.329207e+01  # Hw water
    273      91    2   0.556400  1.499930e+00  1.949945e+01  2.280116e+01  # Hw water
    274      92    1  -1.112800  2.385929e+01  1.357272e+01  1.399862e+01  # Ow water
    275      92    2   0.556400  2.295777e+01  1.360989e+01  1.378411e+01  # Hw water
    276      92    2   0.556400  2.397182e+01  1.307234e+01  1.477135e+01  # Hw water
    277      93    1  -1.112800  6.368158e+00  4.195176e+00  1.022505e+01  # Ow water
    278      93    2   0.556400  5.793476e+00  3.965783e+00  9.534206e+00  # Hw water
    279      93    2   0.556400  6.084236e+00  4.989107e+00  1.061131e+01  # Hw water
    280      94    1  -1.112800  9.121892e+00  6.687834e+00  7.404766e+00  # Ow water
    281      94    2   0.556400  8.548859e+00  7.357090e+00  7.115164e+00  # Hw water
    282      94    2   0.556400  8.789920e+00  5.862743e+00  7.141785e+00  # Hw water
    283      95    1  -1.112800  9.027087e+00  2.117603e+01  1.967470e+01  # Ow water
    284      95    2   0.556400  9.248306e+00  2.185822e+01  1.908663e+01  # Hw water
    285      95    2   0.556400  8.797801e+00  2.041688e+01  1.919381e+01  # Hw water
    286      96    1  -1.112800  3.067312e+01  2.648968e+01  1.757568e+01  # Ow water
    287      96    2   0.556400  3.057155e+01  2.702172e+01  1.832851e+01  # Hw water
    288      96    2   0.556400  3.048566e+01  2.560798e+01  1.779386e+01  # Hw water
    289      97    1  -1.112800  2.168542e+01  9.390677e+00  2.479780e+01  # Ow water
    290      97    2   0.556400  2.222793e+01  9.021397e+00  2.545314e+01  # Hw water
    291      97    2   0.556400  2.132109e+01  1.018419e+01  2.511043e+01  # Hw water
    292      98    1  -1.112800  7.813043e+00  2.409080e+01  2.136792e+01  # Ow water
    293      98    2   0.556400  7.464039e+00  2.327487e+01  2.109850e+01  # Hw water
    294      98    2   0.556400  7.818060e+00  2.413302e+01  2.229438e+01  # Hw water
    295      99    1  -1.112800  2.410502e+01  1.963650e+01  6.511825e+00  # Ow water
    296      99    2   0.556400  2.470426e+01  1.951518e+01  5.814448e+00  # Hw water
    297      99    2   0.556400  2.366520e+01  2.044572e+01  6.402946e+00  # Hw water
    298     100    1  -1.112800  1.979071e+00  2.563048e+01  2.460634e+01  # Ow water
    299     100    2   0.556400  1.499912e+00  2.566796e+01  2.539953e+01  # Hw water
    300     100    2   0.556400  1.499650e+00  2.605629e+01  2.393628e+01  # Hw water
    301     101    1  -1.112800  9.633445e+00  9.318583e+00  9.354396e+00  # Ow water
    302     101    2   0.556400  9.096929e+00  8.585126e+00  9.539686e+00  # Hw water
    303     101    2   0.556400  9.593023e+00  9.508732e+00  8.447561e+00  # Hw water
    304     102    1  -1.112800  1.960111e+01  2.463485e+01  3.067576e+01  # Ow water
    305     102    2   0.556400  1.939068e+01  2.538150e+01  3.016746e+01  # Hw water
    306     102    2   0.556400  1.979603e+01  2.392390e+01  3.011300e+01  # Hw water
    307     103    1  -1.112800  2.849446e+00  1.499643e+00  3.013140e+01  # Ow water
    308     103    2   0.556400  2.050123e+00  1.537812e+00  3.060019e+01  # Hw water
    309     103    2   0.556400  3.539214e+00  1.800778e+00  3.067332e+01  # Hw water
    310     104    1  -1.112800  3.064480e+01  1.638160e+01  7.326471e+00  # Ow water
    311     104    2   0.556400  3.067304e+01  1.554694e+01  6.923127e+00  # Hw water
    312     104    2   0.556400  3.067308e+01  1.627972e+01  8.247862e+00  # Hw water
    313     105    1  -1.112800  3.064510e+01  1.597135e+01  3.067320e+01  # Ow water
    314     105    2   0.556400  3.067320e+01  1.522913e+01  3.011781e+01  # Hw water
    315     105    2   0.556400  3.066117e+01  1.674244e+01  3.015813e+01  # Hw water
    316     106    1  -1.112800  6.568220e+00  1.498183e+00  2.631066e+01  # Ow water
    317     106    2   0.556400  7.026570e+00  1.615499e+00  2.551298e+01  # Hw water
    318     106    2   0.556400  7.168912e+00  1.517829e+00  2.701700e+01  # Hw water
    319     107    1  -1.112800  1.077722e+01  4.107246e+00  2.173527e+01  # Ow water
    320     107    2   0.556400  1.151827e+01  3.583425e+00  2.192657e+01  # Hw water
    321     107    2   0.556400  1.020830e+01  3.641549e+00  2.116994e+01  # Hw water
    322     108    1  -1.112800  2.106855e+01  3.222142e+00  1.499986e+00  # Ow water
    323     108    2   0.556400  2.029018e+01  2.718693e+00  1.528700e+00  # Hw water
    324     108    2   0.556400  2.085238e+01  4.124037e+00  1.499980e+00  # Hw water
    325     109    1  -1.112800  1.684418e+01  3.524919e+00  2.856497e+01  # Ow water
    326     109    2   0.556400  1.744082e+01  3.936873e+00  2.798664e+01  # Hw water
    327     109    2   0.556400  1.602045e+01  3.947572e+00  2.851043e+01  # Hw water
    328     110    1  -1.112800  1.268925e+01  5.306340e+00  4.146134e+00  # Ow water
    329     110    2   0.556400  1.196345e+01  5.809762e+00  3.863443e+00  # Hw water
    330     110    2   0.556400  1.345748e+01  5.609101e+00  3.723886e+00  # Hw water
    331     111    1  -1.112800  8.272043e+00  1.500000e+00  1.609928e+01  # Ow water
    332     111    2   0.556400  7.770845e+00  1.572239e+00  1.532228e+01  # Hw water
    333     111    2   0.556400  9.172399e+00  1.586767e+00  1.589441e+01  # Hw water
    334     112    1  -1.112800  2.824594e+01  2.321301e+01  4.049709e+00  # Ow water
    335     112    2   0.556400  2.815342e+01  2.398851e+01  4.549888e+00  # Hw water
    336     112    2   0.556400  2.815050e+01  2.247558e+01  4.603991e+00  # Hw water
    337     113    1  -1.112800  4.240885e+00  1.493233e+01  5.781801e+00  # Ow water
    338     113    2   0.556400  4.368522e+00  1.549024e+01  6.511587e+00  # Hw water
    339     113    2   0.556400  4.308376e+00  1.542699e+01  5.000205e+00  # Hw water
    340     114    1  -1.112800  3.066959e+01  2.646953e+01  2.547614e+01  # Ow water
    341     114    2   0.556400  3.065121e+01  2.721707e+01  2.492753e+01  # Hw water
    342     114    2   0.556400  3.067278e+01  2.570354e+01  2.495327e+01  # Hw water
    343     115    1  -1.112800  2.554173e+01  4.599487e+00  1.670114e+01  # Ow water
    344     115    2   0.556400  2.525527e+01  4.419067e+00  1.583770e+01  # Hw water
    345     115    2   0.556400  2.574930e+01  3.803571e+00  1.712959e+01  # Hw water
    346     116    1  -1.112800  1.668704e+01  8.173984e+00  1.492076e+01  # Ow water