1608
 Atoms. Timestep: 0
Ow 12.2046 2.24938 9.04902
H 12.2268 1.31907 9.27321
H 12.3797 2.69962 9.87537
Ow 8.60764 22.9844 1.2955
H 7.94333 23.1608 1.9617
H 8.25514 23.3749 0.49581
Ow 4.10163 1.75311 25.4471
H 3.36091 2.31481 25.6752
H 3.97035 1.54694 24.5216
Ow 16.2589 23.6236 1.30376
H 16.6981 23.3095 0.513419
H 15.3813 23.2443 1.25755
Ow 6.22693 22.8019 14.4592
H 6.44833 21.8711 14.4861
H 6.42099 23.1203 15.3408
Ow 20.9531 6.25715 14.1821
H 20.7442 6.80733 14.937
H 20.1158 5.86789 13.9298
Ow 3.72142 17.1716 13.5677
H 4.65981 17.0289 13.444
H 3.33806 16.2955 13.5273
Ow 18.0643 15.3355 23.2634
H 18.1101 16.2673 23.0489
H 18.813 15.1851 23.8406
Ow 2.0911 17.4694 15.8702
H 2.66794 17.3298 16.6212
H 2.67865 17.478 15.1146
Ow 13.8145 7.49689 16.8162
H 13.3242 7.90265 17.5312
H 13.2512 7.60125 16.0494
Ow 22.7999 23.7952 0.364224
H 22.5235 24.608 0.787611
H 23.6721 23.6242 0.719505
Ow 3.27355 10.5071 1.67182
H 2.32104 10.5808 1.73117
H 3.42522 9.62571 1.33062
Ow 20.5191 7.21448 2.4987
H 19.879 7.46435 1.8323
H 20.8307 8.04606 2.85594
Ow 19.1457 8.74802 18.9994
H 19.4389 8.8386 19.9061
H 19.0651 9.64754 18.6822
Ow 4.14167 9.41526 4.18798
H 3.93933 9.97624 4.9367
H 3.91725 9.94544 3.42327
Ow 10.2314 14.43 18.3404
H 9.73785 14.2012 19.128
H 11.1489 14.3725 18.6071
Ow 10.5959 5.90819 19.3132
H 9.64847 6.0374 19.2685
H 10.7201 5.29079 20.0341
Ow 12.5311 10.9807 14.3417
H 11.9235 10.2953 14.0638
H 12.6831 11.5009 13.5527
Ow 0.759762 5.98574 24.2879
H 1.08188 5.89508 25.1847
H 25.9288 5.16463 24.1141
Ow 9.44419 2.29366 6.91184
H 9.22805 2.72194 7.74015
H 9.69416 1.40361 7.15994
Ow 7.63078 6.30619 19.4377
H 7.78296 7.21415 19.6997
H 6.80726 6.06827 19.8636
Ow 6.5103 7.04316 9.21615
H 6.64078 7.36597 10.1078
H 7.19497 7.47224 8.70296
Ow 2.58957 23.261 6.65656
H 2.15768 22.5402 6.19806
H 3.48641 23.255 6.3221
Ow 21.3452 23.7539 11.9315
H 21.9688 24.4528 12.1287
H 20.5448 24.2118 11.6749
Ow 15.5024 17.4513 22.21
H 15.7965 18.2156 22.7055
H 15.7662 17.6338 21.3082
Ow 2.06417 5.9949 13.3962
H 1.69761 5.75271 14.2466
H 2.98815 5.75195 13.4551
Ow 20.7677 12.2383 4.64821
H 20.1853 11.8895 5.32296
H 21.1597 13.0149 5.04763
Ow 4.66777 18.2864 4.6698
H 4.99346 17.4187 4.43081
H 4.77426 18.8099 3.8755
Ow 16.3841 3.81904 4.82559
H 15.5707 4.31734 4.7467
H 16.6195 3.88874 5.75078
Ow 25.4823 11.2012 9.35238
H 0.384288 10.8921 8.61856
H 25.0594 11.995 9.02484
Ow 7.83935 24.1254 24.4184
H 8.35189 24.7714 23.9325
H 7.06716 23.9728 23.8737
Ow 13.0105 25.7626 0.643684
H 13.3267 24.8592 0.635878
H 12.1202 25.7023 0.99006
Ow 7.85688 18.8092 18.3513
H 8.30805 19.641 18.4955
H 6.97334 19.0592 18.081
Ow 14.7881 7.17838 24.9195
H 15.4696 7.13514 24.2488
H 14.9407 6.40801 25.4667
Ow 2.9788 5.28027 9.05296
H 3.86935 5.14454 9.37658
H 2.4222 5.15217 9.82109
Ow 9.2831 23.1374 7.06648
H 9.804 22.8331 6.32331
H 9.11691 22.3483 7.58219
Ow 4.8056 19.0089 18.1828
H 4.45253 19.2925 17.3395
H 4.54731 18.09 18.2543
Ow 9.45791 11.3002 10.3535
H 8.95659 11.4001 9.54425
H 10.2554 11.8086 10.2061
Ow 20.5027 25.3352 14.6429
H 19.9966 24.5606 14.888
H 20.3108 25.9743 15.3291
Ow 7.0415 3.6296 3.59267
H 6.40773 3.24615 4.19891
H 6.50602 4.06115 2.9269
Ow 12.5797 4.50586 14.5035
H 12.4467 5.45253 14.5521
H 12.476 4.2963 13.5753
Ow 22.7909 3.70227 22.4849
H 22.4893 4.50753 22.9054
H 23.5931 3.47256 22.9538
Ow 6.98484 2.44048 13.8432
H 6.3366 3.06353 13.5148
H 6.83816 1.64745 13.3276
Ow 4.80031 10.729 8.54657
H 4.35142 10.7644 9.39125
H 4.18136 11.1191 7.92935
Ow 16.5589 19.4343 24.3399
H 15.7169 19.8892 24.3559
H 16.9874 19.6939 25.1555
Ow 19.7342 1.51557 18.3028
H 18.989 2.00789 17.9584
H 20.4771 2.113 18.2165
Ow 19.5555 7.90765 16.0006
H 19.9729 8.45032 15.3317
H 18.6832 7.72493 15.6515
Ow 1.32588 8.9206 24.1106
H 1.41862 9.73959 23.6239
H 2.20704 8.54687 24.1216
Ow 11.4123 19.9462 23.3091
H 12.2669 20.357 23.4403
H 10.8258 20.6735 23.101
Ow 18.2145 13.8986 11.7731
H 17.4557 13.8603 11.1909
H 18.0211 13.2624 12.4616
Ow 6.59166 23.7191 7.71495
H 6.59126 24.629 7.41786
H 7.49824 23.4317 7.60663
Ow 13.3452 9.56891 0.99269
H 13.7327 10.3716 1.34173
H 13.4086 8.93969 1.71123
Ow 16.205 8.50226 18.3535
H 17.1448 8.66429 18.4357
H 15.8252 8.88712 19.1433
Ow 0.530377 23.7557 17.1261
H 0.939337 23.2662 17.8398
H 1.00038 23.4736 16.3414
Ow 4.18273 9.41129 12.5128
H 3.73486 9.43492 13.3585
H 3.5002 9.61678 11.874
Ow 0.88451 25.0365 25.137
H 0.806053 25.7282 25.794
H 1.74568 24.6504 25.2967
Ow 21.1559 24.6945 21.437
H 20.3155 24.4469 21.0516
H 21.7655 24.0202 21.1371
Ow 11.4144 14.1537 3.18928
H 12.0774 13.4744 3.06601
H 10.9112 14.1485 2.37505
Ow 3.13835 13.2197 0.483247
H 2.53449 13.9112 0.754327
H 2.89085 13.0258 25.2084
Ow 15.3114 19.5628 2.8932
H 14.6151 19.5064 2.2388
H 16.0141 20.0431 2.45523
Ow 15.7076 2.44823 2.13448
H 15.1093 3.13676 1.84425
H 15.7737 1.85621 1.38523
Ow 4.03494 7.95097 8.72886
H 4.21262 8.82109 8.37173
H 4.89753 7.54396 8.80961
Ow 3.35923 23.5399 11.5907
H 2.76541 24.2104 11.9284
H 2.78954 22.8018 11.3742
Ow 23.985 25.2759 10.9258
H 24.251 24.6414 11.5913
H 23.7278 0.422813 11.4234
Ow 14.0343 9.55198 7.96967
H 14.8838 9.42916 8.39351
H 14.1231 9.11437 7.123
Ow 23.6333 16.8134 6.75637
H 24.2207 16.8164 6.00064
H 22.9783 16.147 6.54855
Ow 15.758 6.64263 7.84874
H 15.2331 7.11328 8.49615
H 16.6645 6.82356 8.09739
Ow 22.441 13.419 22.5008
H 23.0644 13.9228 23.0241
H 21.629 13.4419 23.0071
Ow 19.8091 11.4608 11.4548
H 20.1277 11.0701 12.2685
H 19.5417 10.7143 10.9186
Ow 8.76837 24.9047 4.79941
H 8.71393 25.8325 4.57075
H 7.96557 24.5226 4.44477
Ow 1.90533 23.6175 14.8734
H 1.29515 23.4237 14.1618
H 2.6253 22.9994 14.7472
Ow 5.05585 6.57636 4.89839
H 4.21317 6.50947 5.34745
H 5.67996 6.16577 5.49683
Ow 14.2989 0.753329 11.5713
H 14.063 25.8587 12.3369
H 14.04 25.8445 10.8232
Ow 20.6634 1.47172 6.03782
H 20.3081 0.786033 5.4723
H 20.8956 1.01812 6.8481
Ow 2.50815 16.2805 5.70226
H 1.55928 16.3661 5.60984
H 2.6242 15.6039 6.3693
Ow 8.54649 20.5177 4.17688
H 8.10931 20.4602 5.02647
H 7.84584 20.7303 3.56033
Ow 3.75791 7.09296 19.9539
H 3.43103 6.79248 19.1059
H 3.03393 6.93503 20.5599
Ow 4.97727 17.2937 21.4284
H 5.00554 16.5347 22.0109
H 4.12351 17.2353 20.9995
Ow 20.7879 6.03371 18.4639
H 21.2016 5.35279 17.9334
H 19.9382 5.66582 18.7065
Ow 2.18159 3.16124 18.2192
H 1.59052 3.91062 18.2919
H 3.0478 3.51903 18.4139
Ow 9.67106 21.7397 13.6523
H 9.33004 20.9298 14.0318
H 10.381 21.9995 14.2394
Ow 6.58964 5.35902 0.97971
H 7.3254 5.97117 0.966625
H 6.19439 5.44027 25.741
Ow 18.2479 20.26 7.54563
H 18.4859 20.8223 8.2828
H 17.7579 19.5395 7.94179
Ow 16.4794 17.7793 5.00714
H 17.0733 17.4661 4.325
H 16.8467 17.4357 5.82154
Ow 21.4416 25.8983 8.85075
H 20.6321 25.406 8.98684
H 21.5315 0.805588 9.63832
Ow 14.9939 10.1332 16.0235
H 14.9039 10.9478 16.5181
H 14.4552 10.2655 15.2434
Ow 11.365 0.89496 14.4873
H 11.0201 1.38431 13.7404
H 10.591 0.517141 14.9048
Ow 19.3673 3.42997 23.1665
H 18.682 2.78538 22.9902
H 18.9859 4.26553 22.897
Ow 24.7194 12.1574 1.1595
H 24.8315 13.0558 1.47016
H 25.1533 11.6188 1.82123
Ow 17.9677 11.7091 24.4892
H 17.2387 12.1966 24.1055
H 18.6711 12.3533 24.5696
Ow 7.52904 25.2818 19.4526
H 6.72253 25.7272 19.7122
H 8.20334 25.9596 19.4999
Ow 3.68569 9.00894 17.2578
H 3.30988 9.00155 16.3775
H 3.6279 8.0996 17.551
Ow 6.42544 25.2223 13.1244
H 6.19166 24.9719 12.2306
H 6.38697 24.4047 13.6205
Ow 7.7482 6.22595 16.7702
H 7.70284 6.15899 17.7239
H 8.40857 5.58154 16.5155
Ow 16.5225 0.608708 25.7624
H 16.3319 25.5126 0.727889
H 16.3264 25.8922 24.8916
Ow 18.978 1.70236 25.9486
H 18.1996 1.18121 25.7519
H 19.5251 1.12491 0.85179
Ow 2.85072 2.13369 12.1415
H 3.50789 2.76102 12.4429
H 3.00135 1.35339 12.675
Ow 6.54491 16.9566 13.4986
H 7.27262 16.6458 12.9599
H 6.68779 17.9001 13.5738
Ow 9.30462 7.73328 12.5747
H 8.60844 7.20136 12.9602
H 10.0518 7.61178 13.1605
Ow 16.6237 20.8939 19.9653
H 16.3253 21.3456 20.7547
H 17.3987 20.4072 20.2457
Ow 13.7853 24.9273 13.9276
H 14.5071 24.9419 14.556
H 13.0768 25.3997 14.3648
Ow 16.113 5.76736 12.0403
H 16.8325 6.37094 12.2254
H 15.3215 6.27979 12.2051
Ow 10.0769 12.9439 24.0123
H 10.9797 12.7279 23.7788
H 9.55711 12.2261 23.6507
Ow 5.16277 3.83863 18.3765
H 5.06334 4.2852 17.5357
H 5.37834 2.93535 18.1445
Ow 13.6418 7.25572 2.64682
H 14.3433 7.47375 3.26055
H 14.0171 6.57813 2.0844
Ow 21.1253 4.3142 5.17658
H 21.5055 5.18622 5.28266
H 20.1908 4.47425 5.04466
Ow 19.8067 4.62932 25.7714
H 20.3272 4.47262 0.930033
H 20.3008 5.28906 25.2847
Ow 25.9289 15.4704 16.208
H 0.975118 16.1479 16.1778
H 0.734464 14.6832 15.8802
Ow 9.37265 4.24868 4.70775
H 9.5966 3.50983 5.27359
H 8.52931 4.00953 4.32328
Ow 0.434915 1.00793 17.0936
H 0.402567 25.7485 17.4478
H 25.2008 1.14211 16.7028
Ow 5.29844 1.67571 2.45957
H 4.7557 1.02022 2.89776
H 4.71898 2.4288 2.34417
Ow 13.6899 23.9836 17.816
H 14.3055 24.2091 17.1185
H 12.9053 23.6848 17.3563
Ow 24.7866 12.2467 24.1302
H 25.5785 12.7709 24.0102
H 24.6369 12.2509 25.0756
Ow 7.32674 17.8791 10.0835
H 7.78405 18.5946 9.64162
H 7.79056 17.0895 9.80482
Ow 7.71647 23.5468 21.3767
H 7.62237 24.1012 20.602
H 6.93599 23.7305 21.8995
Ow 21.5186 18.4322 23.3238
H 21.3657 17.7697 22.65
H 22.4319 18.6916 23.2024
Ow 20.0044 9.36408 8.95144
H 19.5666 9.98561 8.36985
H 19.5549 8.53324 8.79691
Ow 22.7226 13.7577 13.4136
H 22.2964 13.7736 14.2706
H 23.247 12.9569 13.4212
Ow 24.7635 8.47613 0.545549
H 24.8584 8.79783 25.2783
H 25.1613 9.15691 1.0882
Ow 0.421663 9.93529 17.68
H 1.05921 10.1299 16.9931
H 0.904514 10.0581 18.4973
Ow 7.22444 16.7097 16.5683
H 6.67994 16.5523 17.3397
H 6.64182 16.548 15.8263
Ow 5.39933 9.28083 21.08
H 4.71766 8.85404 20.561
H 5.15932 9.09771 21.9884
Ow 11.2206 6.39358 3.52164
H 12.1432 6.58772 3.35624
H 11.039 6.79634 4.3708
Ow 12.481 16.9079 6.9439
H 12.6673 17.5954 6.30453
H 11.5259 16.8875 7.00294
Ow 22.8616 1.18976 21.2264
H 23.6791 0.859881 21.5993
H 22.2164 0.510992 21.4244
Ow 18.5921 24.4967 19.4902
H 18.7931 25.3266 19.0575
H 17.7388 24.6399 19.8994
Ow 4.44792 19.8792 23.284
H 4.45806 20.6677 23.8266
H 3.77139 19.3269 23.6758
Ow 13.6572 4.5656 7.91552
H 12.9057 4.83968 8.44129
H 14.3875 5.08499 8.25172
Ow 13.7753 7.23351 12.4829
H 14.3942 7.83329 12.8994
H 12.984 7.29566 13.0179
Ow 2.7522 3.88654 5.86784
H 2.46286 3.60608 6.73609
H 2.20274 3.39142 5.26024
Ow 1.50917 7.61274 4.05544
H 1.47236 8.50187 3.70286
H 0.62356 7.27002 3.93517
Ow 8.3744 10.4577 12.7043
H 8.84708 10.8804 11.9873
H 8.63052 9.537 12.6508
Ow 12.5312 17.7842 21.7593
H 12.0884 18.4871 22.2347
H 12.4431 18.0254 20.8372
Ow 15.5756 25.777 19.4877
H 15.3665 0.774747 18.7953
H 16.0248 0.66743 20.1543
Ow 13.7767 22.7733 12.4494
H 13.6372 23.4759 13.0843
H 13.1802 22.9784 11.7294
Ow 13.2723 6.19044 22.1011
H 13.1042 5.44099 22.6723
H 13.6434 6.85558 22.6809
Ow 18.2137 21.1597 10.3678
H 18.2886 22.0937 10.1721
H 17.3521 21.0681 10.7747
Ow 10.7118 19.0727 10.5405
H 10.0419 19.4711 9.98479
H 10.6697 18.1388 10.3352
Ow 3.9573 16.5278 17.4786
H 3.74493 16.0636 18.2884
H 4.27528 15.8456 16.8873
Ow 8.06277 14.1651 20.253
H 7.8635 15.0309 19.8968
H 8.10275 14.2986 21.2
Ow 17.4385 20.2681 1.39347
H 17.7013 19.4689 1.84997
H 17.8041 20.9776 1.92188
Ow 11.1394 11.594 17.2234
H 11.9326 11.7632 17.7318
H 10.5276 11.2125 17.8529
Ow 5.13646 5.04339 15.9506
H 4.91603 5.0926 15.0204
H 6.08848 5.13925 15.977
Ow 3.45955 21.2294 14.5128
H 4.41518 21.2581 14.4662
H 3.27276 20.6642 15.2624
Ow 16.0047 2.30128 13.3697
H 16.7593 2.08194 13.9162
H 15.3075 2.50393 13.9935
Ow 21.8941 7.02656 20.732
H 21.8433 6.53804 21.5535
H 21.4483 6.46971 20.0937
Ow 7.19074 23.7973 16.6814
H 7.32265 23.6182 17.6124
H 8.03205 24.1417 16.3818
Ow 11.9221 8.49885 18.7558
H 11.8661 9.20542 19.3991
H 11.4621 7.76544 19.1643
Ow 15.1723 17.1563 0.738842
H 15.7498 17.8153 25.9827
H 15.2353 16.4065 25.7765
Ow 15.3557 18.3422 19.7466
H 15.6867 19.24 19.7219
H 14.4057 18.4384 19.8132
Ow 12.5161 5.1302 17.5329
H 13.0747 5.88071 17.3306
H 12.1014 5.35713 18.3652
Ow 8.74078 1.01661 10.1544
H 7.79608 1.12932 10.0491
H 9.00702 0.499887 9.39389
Ow 11.2925 24.3281 22.5671
H 10.5842 24.8881 22.8848
H 12.0886 24.7234 22.9222
Ow 6.80933 8.82369 17.7225
H 7.21392 9.65348 17.9754
H 5.95932 9.07205 17.3591
Ow 2.22817 15.9982 2.26381
H 2.33356 16.2376 3.1846
H 1.75067 16.7327 1.87808
Ow 25.4621 16.7769 4.58695
H 25.2781 16.4517 3.70569
H 25.8938 17.6196 4.44651
Ow 21.9203 18.1888 10.5673
H 21.018 17.8715 10.5305
H 21.9865 18.8085 9.84079
Ow 13.7913 23.8458 7.20491
H 13.531 23.9749 8.11694
H 13.1205 24.3022 6.69696
Ow 16.1771 14.7258 25.1519
H 15.3492 14.2934 24.9426
H 16.6836 14.6798 24.341
Ow 18.4921 7.33825 5.86608
H 18.5618 6.64419 5.2106
H 18.5344 8.15033 5.36115
Ow 12.5694 19.7789 1.94883
H 12.3526 20.6501 1.61659
H 12.0063 19.6673 2.71485
Ow 9.88031 4.21914 16.1761
H 9.71764 4.13205 15.2369
H 9.62905 3.37142 16.5428
Ow 25.5044 19.9861 15.6913
H 0.673876 20.2717 16.1348
H 25.8087 19.381 15.0149
Ow 14.2098 21.1099 18.1244
H 13.7698 21.8358 17.6819
H 13.5027 20.5109 18.364
Ow 18.9935 5.6311 3.82255
H 18.239 5.49362 3.24971
H 19.5918 6.17084 3.30596
Ow 16.7997 3.87529 7.80888
H 17.5031 3.80893 8.45464
H 16.365 4.70359 8.0118
Ow 8.51555 13.3007 16.7
H 9.29409 13.4847 17.2256
H 8.00593 12.6894 17.2317
Ow 10.4267 4.42686 22.0941
H 10.7641 4.00545 22.8845
H 9.82283 3.78562 21.7194
Ow 22.8706 19.5286 25.8039
H 23.413 20.2173 25.4196
H 23.3936 19.1881 0.900406
Ow 1.4116 23.5445 22.5863
H 2.22135 23.6483 22.0865
H 1.10655 22.6637 22.3686
Ow 7.08255 9.49864 24.2112
H 6.25669 9.08781 23.9555
H 7.58363 8.79442 24.6226
Ow 5.74976 11.5964 0.66832
H 6.49715 11.4717 1.25318
H 5.8311 10.8951 25.6513
Ow 13.469 18.8094 5.30244
H 12.6882 18.9764 4.77454
H 13.5113 19.5489 5.90877
Ow 17.4469 23.093 14.3174
H 17.4243 22.4457 15.0222
H 16.9874 23.8529 14.6746
Ow 4.34083 4.82007 2.73473
H 4.57044 5.22428 3.57147
H 4.71602 5.40371 2.07531
Ow 7.62546 21.8766 11.5188
H 7.22715 21.2808 12.1534
H 8.11654 21.3051 10.9285
Ow 11.2062 10.297 5.05075
H 10.606 10.1403 4.32177
H 10.7063 10.8392 5.66095
Ow 13.6658 9.60096 23.5277
H 13.2661 10.4511 23.3441
H 14.2678 9.45607 22.7978
Ow 6.00967 11.2474 11.6065
H 6.84766 11.0539 12.0267
H 5.41339 10.5771 11.9402
Ow 16.1985 20.9946 12.8021
H 16.5114 21.8509 13.0938
H 16.8744 20.3811 13.0903
Ow 20.6699 23.6463 24.0193
H 21.3816 23.7299 24.6539
H 20.9178 24.2301 23.3024
Ow 17.0996 22.8673 17.6972
H 17.6916 23.3743 18.2528
H 16.8542 23.47 16.9952
Ow 13.8602 21.0175 6.90412
H 14.0209 20.8217 7.82721
H 13.5562 21.9251 6.90064
Ow 5.39 3.29899 5.79587
H 4.471 3.55331 5.71227
H 5.83806 4.10211 6.06135
Ow 13.7709 9.99923 11.0792
H 14.4538 9.73408 11.6953
H 13.4037 10.7982 11.4573
Ow 0.392237 8.9122 13.2846
H 25.4949 9.34337 12.6115
H 0.824818 8.19188 12.8261
Ow 19.7938 16.7191 16.0473
H 20.1366 17.3746 15.4397
H 19.7661 15.9099 15.5368
Ow 6.49 0.838677 7.01567
H 5.7189 0.814057 6.44908
H 7.06536 1.48718 6.60991
Ow 9.74029 13.8552 0.940825
H 9.49321 14.7782 0.882532
H 9.94212 13.6034 25.6689
Ow 24.1688 10.6182 21.6788
H 23.6223 10.7166 20.8991
H 25.066 10.6238 21.3453
Ow 5.5859 20.5142 20.4307
H 5.2518 20.215 19.5851
H 5.1587 21.359 20.5722
Ow 24.4454 25.6796 5.16763
H 24.3779 24.7603 4.90969
H 25.3232 25.9427 4.89097
Ow 13.0378 16.4382 24.4645
H 12.7038 17.0931 25.0775
H 12.963 15.6084 24.9356
Ow 22.7265 8.49869 10.36
H 23.2709 9.13352 10.8257
H 23.3501 7.87528 9.98755
Ow 9.32096 3.87159 13.5756
H 8.5753 3.28054 13.6799
H 9.64347 3.69728 12.6914
Ow 10.1708 16.9501 17.3508
H 10.8641 17.3658 17.8634
H 10.134 16.0523 17.6806
Ow 4.01096 7.86842 0.878329
H 3.14527 7.47485 0.98755
H 4.09947 7.99525 25.563
Ow 12.6013 25.2562 20.2415
H 12.2704 24.9684 21.0924
H 12.0462 0.370688 20.0072
Ow 19.3151 13.3315 9.11111
H 19.5637 14.1163 8.62283
H 19.362 12.6239 8.46815
Ow 11.5304 1.89285 19.3341
H 10.6858 2.22954 19.6333
H 11.4505 1.85721 18.3809
Ow 9.80284 5.71067 10.6486
H 9.79966 6.46994 11.2315
H 10.542 5.18132 10.9481
Ow 8.71792 2.08373 17.6439
H 7.83337 2.02963 17.2821
H 8.60889 2.54268 18.4768
Ow 14.0311 20.8425 14.665
H 13.3591 21.1394 15.2786
H 14.7174 20.4735 15.2209
Ow 19.089 15.1672 4.15131
H 19.8872 15.3867 3.67069
H 19.3071 15.3351 5.06808
Ow 18.5863 14.5886 18.8737
H 19.5142 14.7465 18.6992
H 18.3408 15.2694 19.5002
Ow 10.1252 20.8496 18.2117
H 10.8235 20.2604 18.4971
H 10.4731 21.2714 17.4261
Ow 12.456 3.78744 3.29027
H 12.8124 4.36395 3.9662
H 12.9475 4.01165 2.50008
Ow 3.01729 12.6183 20.6204
H 2.55032 11.7909 20.7364
H 2.99633 13.0289 21.4848
Ow 16.9743 12.1734 13.4017
H 16.7607 11.2918 13.0962
H 16.1534 12.5077 13.763
Ow 17.2879 17.2695 17.5154
H 17.4985 17.2131 18.4475
H 18.0812 16.9697 17.0716
Ow 20.5592 19.8866 3.85377
H 20.6734 19.7915 4.79936
H 21.3409 19.4837 3.47589
Ow 13.6482 7.31341 9.74124
H 12.8176 6.91073 9.48793
H 13.6325 7.31437 10.6983
Ow 6.34252 24.1683 10.6546
H 6.97472 23.536 10.9964
H 6.67397 24.3931 9.78523
Ow 19.9107 16.4891 10.3716
H 19.7282 16.0683 9.53142
H 19.0808 16.4464 10.8467
Ow 15.9328 24.9869 23.4082
H 15.0694 25.3593 23.5877
H 16.3042 25.5562 22.7342
Ow 16.536 22.4054 22.9131
H 16.3452 23.3113 23.1564
H 15.8181 21.8986 23.2927
Ow 21.2273 14.1923 11.0213
H 21.8495 14.156 11.7478
H 21.0495 15.1255 10.9041
Ow 16.4923 7.5187 22.6376
H 16.0038 7.96521 21.946
H 17.2066 8.11855 22.8524
Ow 0.808352 18.3545 19.2958
H 0.622012 19.1765 19.7493
H 25.6618 17.815 19.4484
Ow 7.16913 19.153 22.7286
H 7.98499 18.7753 22.4001
H 7.43984 19.7133 23.4559
Ow 23.6511 2.4752 1.13432
H 24.201 2.77157 1.8596
H 24.1124 2.76784 25.9775
Ow 25.4104 0.540348 22.4302
H 25.4874 1.41989 22.7999
H 25.9834 0.551273 21.6635
Ow 20.4662 18.6408 14.3731
H 20.4187 19.3137 15.0523
H 21.2879 18.819 13.9158
Ow 5.38359 21.7103 25.3081
H 6.16914 21.2692 24.9847
H 5.34545 21.4822 0.607668
Ow 21.588 22.3471 14.675
H 21.1132 22.0228 15.4403
H 22.1499 23.042 15.018
Ow 16.2549 12.6757 6.10275
H 16.6105 12.8526 5.23181
H 16.871 12.0551 6.49198
Ow 0.639142 25.9557 2.20337
H 0.429194 1.22948 2.44139
H 1.57703 25.8738 2.37624
Ow 23.262 18.7422 3.00298
H 24.2077 18.8632 2.91844
H 23.1578 17.819 3.23336
Ow 17.9344 18.8889 13.5543
H 17.8648 18.3757 12.7493
H 18.7285 18.5636 13.9783
Ow 6.37687 13.0824 9.56613
H 5.82499 13.8644 9.5782
H 6.23352 12.6743 10.42
Ow 2.98905 6.25466 17.5366
H 2.21751 6.06929 17.0012
H 3.7298 6.00123 16.9859
Ow 12.8514 1.09208 3.34754
H 12.81 0.680114 2.48453
H 12.646 2.01259 3.18417
Ow 21.2556 20.2135 19.1326
H 21.7583 19.4249 18.929
H 20.8875 20.4871 18.2925
Ow 2.9925 19.7159 12.1015
H 2.31286 20.2634 11.7083
H 3.25003 20.1857 12.8947
Ow 19.8875 6.13456 10.5267
H 20.8219 6.10127 10.7319
H 19.5061 6.66061 11.2295
Ow 0.675281 2.76045 7.38051
H 25.8244 3.58802 7.35139
H 0.388415 2.28893 6.59845
Ow 20.0456 20.1773 25.0779
H 19.9026 20.8989 25.6903
H 19.846 20.5487 24.2185
Ow 1.87857 21.6801 19.3949
H 2.55964 22.2578 19.7392
H 1.20166 21.677 20.0716
Ow 1.34754 16.7463 22.7646
H 1.84533 17.2395 23.4166
H 1.45913 15.8305 23.0198
Ow 10.7479 21.4754 0.597916
H 10.0171 21.8608 1.08137
H 10.6371 21.7934 25.3311
Ow 14.953 1.78753 17.4483
H 15.2416 1.00232 16.9831
H 15.6506 2.42551 17.2979
Ow 4.63916 21.3624 10.0738
H 4.07836 20.8615 10.6661
H 4.93156 20.7242 9.42305
Ow 13.8432 4.06556 23.7829
H 13.1245 3.45436 23.9448
H 14.171 4.28689 24.6545
Ow 0.56008 1.65796 10.0092
H 25.901 1.76769 9.10307
H 25.677 0.918494 10.3362
Ow 20.3639 18.8948 6.4575
H 20.0852 18.0109 6.69689
H 19.7329 19.4706 6.88933
Ow 9.8495 8.51041 16.9251
H 10.476 8.80159 17.5877
H 10.3746 8.39297 16.1335
Ow 11.2933 9.56154 9.35952
H 10.7161 10.1443 9.85295
H 10.702 9.04622 8.81088
Ow 24.3983 7.79809 22.8236
H 24.2426 8.67242 22.4665
H 23.5808 7.32561 22.6667
Ow 24.6834 25.5995 7.96062
H 24.6907 25.47 7.01226
H 25.3165 24.9641 8.29454
Ow 18.2666 9.09901 23.7903
H 18.5039 8.71794 24.6357
H 17.9689 9.98399 24.0011
Ow 23.4783 23.8415 15.6036
H 23.3378 24.7746 15.764
H 24.003 23.8118 14.8036
Ow 6.21966 12.7422 6.44603
H 6.7447 12.6656 5.64935
H 5.31344 12.6914 6.14203
Ow 13.4917 15.0577 21.7681
H 13.133 14.2883 22.2105
H 13.2622 14.9338 20.8471
Ow 7.94024 16.5109 3.21634
H 8.14069 16.5196 4.15227
H 7.51481 17.3529 3.05416
Ow 17.3247 17.4967 11.2082
H 17.2572 17.8424 10.3182
H 16.4193 17.3309 11.4706
Ow 24.2587 18.17 21.741
H 23.7948 17.9614 20.9302
H 24.3835 19.1185 21.7088
Ow 22.6592 0.629866 13.4146
H 21.8376 25.9708 13.8122
H 22.4188 1.39899 12.898
Ow 21.3021 3.47848 2.26296
H 22.0107 3.24178 1.66451
H 21.7299 3.5797 3.11325
Ow 24.2415 13.1858 6.42599
H 24.7432 13.2643 5.61459
H 23.4039 13.6066 6.23194
Ow 3.27282 25.4827 3.27707
H 3.29622 24.5273 3.22429
H 3.06612 25.6675 4.19324
Ow 2.30125 10.4625 10.5804
H 2.2509 9.72476 9.97261
H 1.61109 11.0594 10.2911
Ow 16.47 9.28854 9.53447
H 16.2188 9.1695 10.4504
H 17.1267 8.61048 9.37564
Ow 23.1849 18.8106 12.8383
H 23.5793 19.6531 12.6127
H 22.5729 18.6332 12.1241
Ow 22.7174 5.48225 11.856
H 23.3059 5.67427 11.1259
H 22.3255 4.63803 11.6327
Ow 10.2893 1.45311 12.1438
H 9.63244 1.3404 11.4568
H 10.9313 2.05408 11.7658
Ow 8.04391 20.3887 25.0527
H 8.16198 19.4506 25.2015
H 8.29666 20.7968 25.8808
Ow 18.9173 11.3579 18.2525
H 18.9691 11.7925 17.4013
H 18.3469 11.9214 18.7754
Ow 18.096 16.7939 20.3334
H 17.5775 16.9953 21.1123
H 19.0049 16.8603 20.6263
Ow 15.9009 12.9825 22.806
H 14.9477 12.9401 22.7287
H 16.1305 13.8495 22.4717
Ow 1.1388 7.28965 21.3949
H 0.369591 6.79484 21.1125
H 1.10653 8.09694 20.8816
Ow 7.2626 5.45982 6.29952
H 7.58536 5.82681 7.12254
H 8.02196 5.47263 5.7169
Ow 18.539 17.9663 23.0069
H 18.9819 18.5217 22.3654
H 17.9906 18.5696 23.5086
Ow 1.14282 7.81173 8.6539
H 0.748847 8.41998 8.02856
H 0.400132 7.33795 9.02831
Ow 3.57726 0.762133 17.1876
H 4.24906 0.652924 16.5146
H 3.88155 25.855 17.9197
Ow 5.35647 24.1003 22.8099
H 4.80304 23.6518 22.1705
H 5.11887 25.0238 22.7271
Ow 5.24107 13.5549 19.1656
H 5.57001 14.4536 19.1837
H 5.44662 13.2066 20.0331
Ow 9.35597 0.559842 23.2377
H 9.63193 1.1219 23.9617
H 8.98655 1.16313 22.5928
Ow 18.3592 23.1145 25.2732
H 17.7553 23.0706 24.5318
H 19.2125 23.2918 24.8774
Ow 14.5273 20.7045 9.62922
H 13.886 20.6249 10.3354
H 14.9102 21.5735 9.74966
Ow 11.9842 7.4855 25.1543
H 12.3735 6.67053 25.4713
H 11.0673 7.43439 25.4241
Ow 9.76845 14.186 5.37856
H 9.49507 15.0412 5.71038
H 10.4689 14.3826 4.75648
Ow 9.16082 17.6133 21.6225
H 8.96994 16.7408 21.9667
H 10.0523 17.5466 21.2803
Ow 18.3801 8.18107 0.879334
H 18.2012 9.03016 1.28342
H 17.8615 7.55867 1.38906
Ow 4.98992 22.54 5.62745
H 5.92797 22.5716 5.81529
H 4.8491 21.67 5.25397
Ow 1.75255 1.03208 20.5949
H 2.56364 1.19838 21.0752
H 1.95235 1.28196 19.6927
Ow 5.40386 15.4214 3.86154
H 6.24956 15.5529 3.43291
H 5.57706 15.5834 4.7889
Ow 5.18575 19.4487 8.47642
H 5.41048 18.6423 8.9405
H 5.87281 19.5456 7.81703
Ow 19.0544 8.10763 12.2449
H 19.7012 8.59535 12.7548
H 18.2515 8.6234 12.3196
Ow 1.36881 21.5105 4.8608
H 1.76293 21.7564 4.02386
H 0.461049 21.8069 4.79485
Ow 12.8444 12.4326 12.0063
H 12.1729 12.8008 11.4321
H 13.5133 13.1151 12.0619
Ow 24.4503 6.45125 20.1975
H 24.6673 6.40681 19.2663
H 23.6106 6.9097 20.2267
Ow 6.21128 1.50188 16.326
H 6.59422 1.68874 15.4689
H 6.48358 0.604999 16.5202
Ow 21.5856 21.4871 1.68317
H 22.0866 20.8353 1.19285
H 21.7782 22.3165 1.24595
Ow 15.2405 3.53615 10.6666
H 14.3987 3.61629 11.1152
H 15.7428 4.29578 10.9613
Ow 9.63383 24.4025 15.5671
H 10.2834 23.7635 15.8602
H 9.60303 24.2948 14.6165
Ow 12.4829 13.6456 15.607
H 12.0432 14.4113 15.2373
H 13.4123 13.7959 15.4344
Ow 23.8763 21.4294 17.1813
H 24.2652 20.9423 16.4548
H 22.9399 21.2399 17.1232
Ow 8.47773 11.3956 22.5291
H 8.13772 10.5914 22.9214
H 7.79071 11.6769 21.9249
Ow 14.9928 13.919 14.5885
H 15.2249 14.7638 14.2029
H 15.3722 13.9438 15.467
Ow 15.3129 24.2174 4.45375
H 14.5612 24.5011 3.93353
H 15.9446 23.899 3.80889
Ow 22.189 20.0263 8.18892
H 21.6546 20.8203 8.20062
H 21.7322 19.4384 7.58731
Ow 24.9151 15.0156 22.34
H 25.7454 14.6131 22.5946
H 24.7037 14.6164 21.4961
Ow 13.8195 5.56731 5.41234
H 13.5706 5.22507 6.27091
H 14.2946 6.37569 5.60475
Ow 24.0042 23.7913 23.5046
H 23.7904 23.0505 22.9374
H 23.5859 23.5827 24.3398
Ow 8.63217 20.606 20.7608
H 9.05079 19.7454 20.7779
H 7.69431 20.4174 20.7937
Ow 13.9296 12.6153 8.03082
H 13.7371 11.6794 7.97403
H 13.1331 13.0025 8.39404
Ow 25.5051 2.67325 12.8219
H 24.7827 3.25313 13.063
H 25.3265 1.85902 13.2924
Ow 4.19786 24.0359 8.92338
H 3.81967 24.8431 8.57447
H 4.94134 23.8516 8.34939
Ow 10.1657 25.6029 7.76887
H 10.9285 25.3746 8.30001
H 9.91476 24.7826 7.34411
Ow 12.5592 16.4535 14.9331
H 13.1138 16.3484 14.1601
H 11.8426 17.0161 14.6397
Ow 25.5339 14.0608 8.55908
H 25.0864 13.9166 7.72531
H 24.8762 14.4779 9.11548
Ow 21.5831 7.26494 8.16361
H 21.9001 7.04753 7.28701
H 21.3865 6.41827 8.56455
Ow 24.7711 20.6611 24.3596
H 24.8704 20.8244 23.4217
H 25.5798 20.9946 24.7482
Ow 17.5906 5.27698 14.5137
H 17.6258 4.64482 15.2315
H 17.0317 4.8626 13.8562
Ow 12.9177 14.4671 19.2384
H 13.1659 15.2548 18.7545
H 13.5054 13.7875 18.9083
Ow 3.36288 25.3858 13.6587
H 2.86437 24.7445 14.165
H 4.18338 24.9401 13.4482
Ow 1.90486 17.2521 11.0725
H 1.41065 16.487 10.7784
H 1.253 17.9506 11.1319
Ow 1.84612 3.43156 0.588317
H 1.45327 3.53375 1.45518
H 1.10185 3.42808 25.6157
Ow 18.6902 3.36428 9.81348
H 19.489 2.87642 9.61286
H 18.9744 4.05332 10.4141
Ow 7.62807 8.614 14.9158
H 7.12278 8.07931 14.3034
H 7.4248 9.51664 14.6705
Ow 23.8821 7.60637 14.1707
H 24.0256 7.84181 15.0873
H 24.5455 8.10066 13.6892
Ow 18.2694 7.35019 8.60178
H 18.9381 6.79802 9.00696
H 18.5576 7.44938 7.6944
Ow 8.0923 8.71022 20.8385
H 7.17554 8.96807 20.9349
H 8.27442 8.1774 21.6126
Ow 25.6302 19.1429 10.7817
H 25.4798 18.8467 9.88398
H 25.8329 20.0745 10.6962
Ow 25.3777 13.249 19.5588
H 25.8293 12.4907 19.9293
H 24.9044 12.9009 18.8032
Ow 20.863 16.6478 21.276
H 20.9344 15.6933 21.2815
H 21.5002 16.9323 20.6208
Ow 21.2858 22.7698 4.62034
H 22.2401 22.8312 4.57805
H 20.9807 23.6641 4.46773
Ow 7.34819 11.5049 18.6901
H 6.86198 12.2896 18.9434
H 8.12425 11.5122 19.2504
Ow 7.46198 19.8972 6.59459
H 7.57986 18.95 6.52282
H 8.01153 20.152 7.33575
Ow 2.55414 16.6475 20.3607
H 1.99253 17.1712 19.7892
H 2.16071 16.7345 21.229
Ow 11.0383 19.0658 4.04733
H 10.7246 18.3443 4.59249
H 10.3367 19.716 4.08278
Ow 20.1353 14.3921 14.6302
H 19.6693 13.5852 14.8492
H 20.0726 14.4543 13.6771
Ow 13.4679 14.1355 25.8384
H 13.7934 13.5478 0.890975
H 13.059 13.555 25.1964
Ow 10.3508 22.9847 10.8185
H 11.0565 23.4709 10.3922
H 10.1088 22.3086 10.1856
Ow 8.85015 15.1111 12.574
H 8.67783 15.0648 11.6336
H 9.38787 14.3408 12.7576
Ow 16.1016 14.4862 3.35399
H 15.6701 15.3362 3.44088
H 15.3881 13.8712 3.18368
Ow 13.1945 0.618994 23.5236
H 12.5584 1.27587 23.2405
H 12.97 0.445942 24.4379
Ow 13.3086 4.11343 19.9666
H 12.7712 3.37856 20.2621
H 13.1452 4.16688 19.025
Ow 2.47574 19.9793 16.7558
H 2.24004 19.0692 16.5758
H 2.25909 20.1051 17.6796
Ow 14.159 14.6283 5.99855
H 14.9459 15.1721 6.03248
H 13.5002 15.1291 6.47964
Ow 24.4884 21.5366 7.51458
H 23.6804 21.0271 7.57677
H 24.4652 21.917 6.63651
Ow 24.3538 7.97893 16.7498
H 25.0425 8.58262 17.0284
H 24.8117 7.15663 16.5755
Ow 6.12735 7.46151 12.2672
H 5.65051 6.69135 12.5766
H 5.48691 8.17184 12.3059
Ow 18.5695 2.74881 2.85007
H 19.4995 2.83927 3.05765
H 18.5472 2.61288 1.90284
Ow 1.71781 6.20082 1.4462
H 1.81289 6.53077 2.33969
H 2.05292 5.305 1.48426
Ow 3.45734 11.7302 17.5494
H 2.98328 12.1686 16.8428
H 3.2175 10.8076 17.463
Ow 6.13252 15.7517 6.74819
H 6.33778 14.8169 6.7639
H 6.98558 16.1841 6.70857
Ow 6.02627 12.1221 21.5062
H 6.00521 12.3402 22.438
H 5.78583 11.1963 21.4709
Ow 1.02935 21.3254 0.411361
H 0.75364 20.5521 0.903586
H 0.513667 22.0419 0.781412
Ow 24.621 9.58157 5.70998
H 24.2477 8.70015 5.71113
H 24.7333 9.79342 4.7833
Ow 21.9682 8.61481 17.9427
H 22.8194 8.4268 17.5473
H 22.156 9.26654 18.6181
Ow 18.7426 12.1017 15.4509
H 19.3115 11.3561 15.2596
H 18.1074 12.1088 14.7349
Ow 9.72601 10.5417 19.7098
H 10.4567 10.7374 20.2963
H 9.13493 10.0019 20.2346
Ow 4.45177 13.0112 3.15024
H 3.79989 12.9599 3.84928
H 4.9612 13.7955 3.35424
Ow 22.4998 22.2418 20.6071
H 23.2929 21.7401 20.7956
H 21.9798 21.6668 20.0457
Ow 20.4322 2.97333 20.7434
H 20.2281 2.06936 20.5038
H 20.0178 3.09453 21.5977
Ow 10.4012 18.0132 13.6426
H 10.1567 17.264 13.0992
H 10.3548 18.7641 13.0509
Ow 6.14373 8.22558 2.52395
H 5.48348 7.91524 1.90429
H 6.9783 8.07979 2.07844
Ow 7.99529 12.1072 4.37088
H 8.63452 12.735 4.70775
H 8.41958 11.7202 3.60509
Ow 24.2887 10.2357 11.7905
H 24.6004 10.9912 11.2921
H 23.885 10.6136 12.5718
Ow 6.04774 1.72132 9.71174
H 5.94509 2.66992 9.78817
H 5.99871 1.54962 8.77134
Ow 10.487 22.9357 4.40911
H 9.86096 23.6591 4.37863
H 9.9805 22.1686 4.14186
Ow 16.3633 14.5812 17.2331
H 15.864 13.9629 17.7667
H 17.2296 14.6039 17.6396
Ow 24.4879 17.042 24.6696
H 24.001 16.3431 25.1063
H 24.8811 17.5432 25.384
Ow 9.91796 4.34217 1.71096
H 10.1496 3.88778 0.900964
H 9.47014 5.13681 1.42071
Ow 4.5812 14.4891 15.6779
H 5.43542 14.4787 15.2461
H 4.18019 13.6541 15.4367
Ow 22.5339 3.69423 7.55908
H 23.0433 4.49914 7.65335
H 22.6277 3.25076 8.40216
Ow 11.435 6.04613 8.70325
H 10.937 6.32417 7.93452
H 10.7755 5.92973 9.38718
Ow 5.77624 11.7117 15.1824
H 5.61982 12.0739 16.0546
H 6.11203 12.4492 14.673
Ow 18.2997 14.8266 1.32205
H 17.5501 14.7194 0.736514
H 19.0432 14.4854 0.824998
Ow 10.3923 9.57502 2.60147
H 11.3006 9.67647 2.31671
H 10.3158 8.64977 2.8345
Ow 2.56315 22.4091 2.70841
H 2.10646 22.3234 1.87156
H 3.25336 21.7468 2.67409
Ow 9.02058 24.4795 12.7963
H 9.49313 24.8489 12.0503
H 8.14146 24.8527 12.7321
Ow 11.6044 16.3769 10.9707
H 11.5133 15.4994 10.5995
H 12.5164 16.4226 11.2579
Ow 23.7153 17.6151 16.4331
H 23.9471 18.5127 16.1947
H 23.4216 17.6765 17.342
Ow 16.7945 7.65928 15.526
H 16.8261 7.92813 14.6079
H 16.955 6.71586 15.5055
Ow 9.81225 22.1844 22.851
H 10.4476 22.8995 22.8866
H 9.04038 22.5266 23.302
Ow 22.9382 14.7834 0.700244
H 22.7485 14.9675 1.62021
H 22.1022 14.9122 25.8816
Ow 8.83598 18.988 15.5453
H 9.43379 18.6881 14.8606
H 8.01295 19.1589 15.0874
Ow 18.0158 12.4483 3.51676
H 18.9428 12.3382 3.72841
H 17.7413 11.5922 3.18821
Ow 25.2169 5.20679 6.92317
H 25.3369 5.48688 7.83057
H 24.5794 5.82387 6.56387
Ow 23.2098 3.93562 19.6029
H 23.6091 4.80482 19.6386
H 22.9968 3.8071 18.6786
Ow 6.67852 16.5755 19.4564
H 6.0701 16.835 20.1483