1608
 Atoms. Timestep: 0
Ow 14.0398 4.22111 16.0455
H 13.1948 3.79454 16.1879
H 13.8177 5.07719 15.6793
Ow 25.3804 18.1043 9.84093
H 25.9456 17.4228 9.47711
H 25.5304 18.0616 10.7853
Ow 11.9215 6.01351 22.8306
H 11.4081 6.80626 22.9862
H 12.3857 5.86274 23.654
Ow 18.5322 6.63435 14.3367
H 18.4296 7.08584 13.4989
H 18.0329 5.82404 14.2354
Ow 24.0918 18.8842 23.2841
H 24.0018 19.8332 23.3711
H 24.9825 18.6993 23.5818
Ow 21.0947 25.6431 16.2223
H 21.5417 24.9038 15.8102
H 21.1737 0.724457 15.5877
Ow 21.1252 24.0734 5.02142
H 21.8796 24.5906 5.30357
H 20.3663 24.6036 5.26474
Ow 18.2994 4.6892 24.3144
H 19.245 4.55683 24.2463
H 18.0262 4.92884 23.4289
Ow 20.2187 2.08197 18.4758
H 19.54 2.4422 17.9049
H 20.1942 2.63535 19.2565
Ow 9.65723 12.0601 15.0493
H 9.43788 11.1302 15.1076
H 9.00172 12.4244 14.4544
Ow 17.9731 12.9846 0.952481
H 17.2417 12.527 0.537823
H 18.2067 12.4352 1.70064
Ow 13.028 25.9651 12.5872
H 13.7838 0.489099 13.1539
H 13.2568 25.179 12.0914
Ow 20.5904 19.1773 6.20608
H 20.705 20.0988 6.43844
H 20.7915 18.7 7.01107
Ow 23.0869 9.55003 25.2113
H 22.6226 10.0521 24.5415
H 24.0001 9.55411 24.9244
Ow 8.47275 24.0427 13.1761
H 8.08324 23.268 12.7707
H 8.28377 24.7543 12.5644
Ow 20.0012 8.29371 25.0826
H 19.187 7.87475 25.3614
H 20.6923 7.75965 25.4744
Ow 13.7182 2.31815 25.4307
H 13.049 1.85088 24.9307
H 13.3949 3.21762 25.4823
Ow 13.3947 13.9651 5.11544
H 12.8485 13.796 5.88312
H 12.8849 14.5811 4.58921
Ow 4.66708 16.372 3.82504
H 5.03647 16.4195 4.70681
H 5.272 15.8096 3.34138
Ow 12.4923 3.3964 12.4978
H 12.003 4.01926 11.9604
H 11.9651 3.29746 13.2906
Ow 12.7874 17.5201 5.09884
H 12.569 17.0212 4.31167
H 12.4367 16.9968 5.81959
Ow 16.2371 14.8218 15.6081
H 15.6843 15.3423 15.0253
H 15.6303 14.4576 16.2526
Ow 24.3684 15.834 7.07461
H 24.5061 16.2821 6.24009
H 25.195 15.9429 7.54482
Ow 14.5086 16.3536 13.9012
H 14.3012 17.0399 14.5354
H 13.6582 15.9911 13.6532
Ow 5.48838 2.7959 3.75493
H 5.59463 2.18096 3.02913
H 5.99811 3.5635 3.4957
Ow 25.32 14.7656 3.41017
H 0.623983 14.6392 3.57234
H 25.2461 14.8137 2.45704
Ow 22.4175 22.9516 8.6836
H 23.1721 22.3728 8.79226
H 22.0809 23.0763 9.57096
Ow 18.7326 24.1603 17.2529
H 19.1886 24.8836 16.8227
H 18.8394 24.3318 18.1885
Ow 4.78701 25.9044 22.777
H 4.71154 25.7829 21.8306
H 3.89537 25.7893 23.1056
Ow 2.1274 10.6487 0.42887
H 2.00893 11.5855 25.9028
H 1.40934 10.2327 25.5826
Ow 19.2747 20.477 2.42334
H 20.1224 20.081 2.22098
H 18.8823 20.6539 1.56842
Ow 22.6286 1.93825 3.38255
H 22.1629 2.70145 3.72442
H 22.7688 1.38014 4.14747
Ow 24.7994 19.1781 16.3295
H 25.0915 18.7168 15.5433
H 24.7764 20.0998 16.0724
Ow 1.50434 20.5585 6.5461
H 0.890544 19.9594 6.12121
H 1.86003 21.0852 5.83031
Ow 0.421066 12.443 16.6764
H 25.8184 12.768 17.546
H 1.37777 12.4124 16.6806
Ow 13.1256 11.398 18.4459
H 13.8479 10.9409 18.0152
H 13.2527 11.2229 19.3784
Ow 1.31732 1.20492 4.24295
H 0.62728 1.62223 4.75864
H 1.86858 1.92992 3.94844
Ow 16.598 7.46672 7.82846
H 15.7692 7.11032 7.50862
H 16.4825 8.41607 7.78813
Ow 14.7254 16.1544 22.693
H 14.8173 16.7897 21.983
H 13.7925 16.1672 22.9072
Ow 0.387435 4.80238 4.66807
H 25.4579 4.9152 3.9003
H 25.7103 3.99149 5.07287
Ow 17.5821 12.3539 16.785
H 17.859 13.1872 17.166
H 18.398 11.9247 16.5277
Ow 7.68127 6.30318 23.3385
H 7.71315 7.25825 23.2832
H 7.44525 6.01943 22.4553
Ow 21.4075 13.5193 3.4271
H 20.6932 12.8861 3.49733
H 21.0494 14.3269 3.79565
Ow 6.827 22.2156 3.84276
H 6.37165 21.4822 4.25621
H 6.71699 22.0677 2.90349
Ow 18.0373 22.0898 7.28174
H 17.862 21.2743 7.75128
H 18.992 22.1373 7.2315
Ow 5.19613 15.2283 18.2002
H 5.54771 15.7186 17.4571
H 5.90727 15.2208 18.8408
Ow 10.437 19.023 21.6532
H 11.3923 19.0448 21.7095
H 10.2112 19.7789 21.111
Ow 16.6804 19.0237 2.75743
H 16.4929 18.3332 2.12164
H 15.8719 19.5341 2.80277
Ow 7.52342 13.1005 5.28664
H 7.28333 13.2352 4.36988
H 6.73326 13.3266 5.77735
Ow 20.3646 10.8278 8.55982
H 20.8636 11.5321 8.97364
H 19.6738 10.6212 9.18936
Ow 3.46822 5.31797 10.7343
H 2.82668 5.99696 10.5254
H 4.14759 5.41633 10.0672
Ow 19.6673 25.6235 9.82979
H 20.0417 0.462399 9.08456
H 19.2721 24.8406 9.44602
Ow 23.1813 4.42753 11.6469
H 22.8938 3.86188 10.9302
H 22.5989 4.20814 12.3741
Ow 0.53636 9.08855 15.5896
H 25.3656 8.72179 15.9625
H 25.916 9.96372 15.2943
Ow 18.2411 21.0261 17.6862
H 18.0582 21.3006 18.5848
H 18.9279 20.3649 17.7724
Ow 4.91879 6.54386 8.34967
H 5.67368 5.95775 8.40294
H 4.39564 6.19635 7.62732
Ow 7.34561 10.0381 0.885305
H 7.6395 10.4129 1.71557
H 8.0162 10.2983 25.8846
Ow 10.9696 21.7781 18.106
H 10.4986 21.3838 17.3718
H 11.826 21.3507 18.0991
Ow 6.5539 21.1135 22.6753
H 7.05407 21.0422 23.4883
H 6.29922 20.2138 22.4705
Ow 12.1419 13.9848 19.5633
H 12.7361 13.778 20.2847
H 11.8217 14.865 19.7608
Ow 1.61183 16.2981 14.5109
H 2.49803 16.569 14.2711
H 1.04393 16.9627 14.1209
Ow 5.61955 20.4614 7.61942
H 5.756 19.5813 7.97023
H 4.88628 20.3664 7.01153
Ow 6.84168 7.24966 1.54707
H 7.74334 7.19302 1.86334
H 6.77219 8.12943 1.17641
Ow 24.3478 6.41761 24.8375
H 25.1223 6.04665 24.4147
H 23.6751 6.40827 24.1566
Ow 4.76678 3.50494 25.6327
H 3.86549 3.74647 25.8462
H 4.89783 2.66092 0.433924
Ow 25.1535 5.34438 17.3938
H 24.3814 4.93234 17.006
H 24.9657 6.28249 17.3632
Ow 16.7018 2.32775 7.35183
H 17.0889 1.99121 6.54367
H 15.7862 2.05143 7.31258
Ow 7.57208 17.4906 24.033
H 7.2836 18.2632 24.5189
H 8.52509 17.5722 23.9963
Ow 7.77022 14.5183 23.4375
H 8.03998 13.7214 23.894
H 7.60667 14.2357 22.5377
Ow 20.0331 18.7771 17.6955
H 20.9242 19.0764 17.5147
H 19.7867 18.2743 16.9192
Ow 1.8529 2.92989 11.1472
H 1.23453 3.38541 11.7184
H 2.35621 3.63004 10.7316
Ow 14.3085 3.22002 6.04685
H 14.4005 4.15669 6.22121
H 14.7784 3.08168 5.22449
Ow 20.6956 5.90939 19.9044
H 20.1862 5.16486 20.2244
H 21.431 5.97656 20.5135
Ow 9.40509 24.1167 18.628
H 8.55903 24.0153 19.064
H 9.73771 24.9575 18.9422
Ow 7.47085 12.3487 16.5493
H 7.24892 13.2666 16.3926
H 8.35036 12.2489 16.185
Ow 17.849 17.6182 18.992
H 17.9573 16.7094 18.7117
H 18.6534 18.0538 18.7101
Ow 20.6299 5.22227 15.9154
H 21.2697 4.53539 16.1027
H 20.591 5.73968 16.7198
Ow 6.13252 21.4003 16.8166
H 6.75392 20.6741 16.8686
H 6.27589 21.897 17.6221
Ow 1.40774 11.733 11.7499
H 2.13699 12.1611 12.1984
H 0.887631 12.4541 11.3952
Ow 4.85608 23.1997 23.6427
H 5.05302 22.263 23.6358
H 4.46943 23.3573 24.504
Ow 3.03378 7.18883 1.8526
H 2.33605 7.8327 1.73082
H 2.78253 6.45395 1.29308
Ow 16.8549 3.36579 0.489724
H 17.3796 3.81872 25.4605
H 16.888 2.44455 25.8628
Ow 13.907 17.9874 8.19234
H 13.6323 18.8184 7.80472
H 13.193 17.3819 7.99284
Ow 15.0731 10.3379 10.9277
H 14.1449 10.5617 10.8604
H 15.3689 10.2655 10.0203
Ow 11.2043 3.68699 8.10594
H 10.6082 4.22726 8.62462
H 11.8926 4.29023 7.82576
Ow 9.68329 17.679 7.0446
H 10.299 17.0439 7.41048
H 8.93158 17.653 7.63662
Ow 17.7962 1.41097 22.5872
H 18.0374 1.06801 23.4477
H 18.2617 0.850586 21.9664
Ow 24.8237 18.929 2.27896
H 25.6212 19.3869 2.01339
H 24.8631 18.9131 3.23522
Ow 19.2885 10.8902 23.8317
H 20.0148 11.3536 23.4145
H 19.0605 11.4322 24.5871
Ow 5.2151 7.9292 17.7213
H 4.96915 8.32253 18.5585
H 5.78597 8.57806 17.3098
Ow 2.17509 9.40031 4.75235
H 1.61599 8.76235 5.19581
H 3.02738 8.96927 4.68879
Ow 8.8555 20.3478 5.13306
H 8.3253 21.1446 5.14793
H 8.26149 19.6702 4.81003
Ow 11.4905 19.5729 7.62669
H 11.4333 20.4158 7.17655
H 10.7402 19.0756 7.30115
Ow 1.675 12.2079 21.2564
H 1.20826 11.4205 20.9765
H 1.09817 12.6109 21.9053
Ow 14.4771 13.9494 21.1179
H 14.4257 14.8395 21.4663
H 15.3237 13.9146 20.6725
Ow 10.797 5.07173 16.1016
H 10.0216 4.62182 15.7661
H 11.0986 4.5228 16.8255
Ow 17.8955 16.9895 9.04907
H 18.8483 16.9112 9.09624
H 17.6571 16.535 8.24111
Ow 14.2314 13.8248 9.34414
H 13.299 13.9155 9.54089
H 14.3494 12.8918 9.16597
Ow 16.3542 9.2801 14.8844
H 16.788 10.0304 14.4782
H 16.9254 8.53747 14.6884
Ow 10.383 12.6175 21.4541
H 10.8668 13.1999 20.8685
H 9.56794 12.4315 20.988
Ow 25.3525 14.6829 18.8378
H 24.5886 14.9892 18.3491
H 25.0818 14.7211 19.7551
Ow 4.6919 25.9053 11.4267
H 5.31291 25.8768 10.6989
H 3.88345 25.5404 11.0668
Ow 1.57902 25.1931 13.3051
H 1.87676 0.467924 13.2194
H 2.3422 24.6661 13.0683
Ow 3.03808 11.7498 8.47677
H 3.55213 11.1303 8.99461
H 3.6906 12.2719 8.00997
Ow 3.13119 25.3824 1.5694
H 3.02872 24.4771 1.27572
H 4.04246 25.5975 1.37055
Ow 13.6655 21.9036 22.3964
H 13.233 21.7244 23.2313
H 13.2783 22.7263 22.0973
Ow 20.7355 19.8873 10.3017
H 19.79 20.0362 10.3008
H 20.8688 19.1867 9.66331
Ow 20.7993 19.4725 13.0435
H 20.8955 19.6578 12.1093
H 21.5713 19.8688 13.4474
Ow 19.1003 3.56657 2.84503
H 19.908 4.05211 3.01261
H 19.2965 3.03278 2.0751
Ow 14.1502 2.11726 18.028
H 13.2126 2.30881 18.0031
H 14.4444 2.24093 17.1256
Ow 4.7389 14.5591 12.6101
H 5.63083 14.2639 12.7932
H 4.70515 15.4505 12.957
Ow 2.8707 8.38408 13.6787
H 3.32614 7.54261 13.7058
H 2.80782 8.59305 12.7468
Ow 6.99619 19.7754 25.5115
H 6.87894 18.9791 0.398844
H 7.86538 20.0941 25.7547
Ow 19.3182 16.8884 21.1951
H 18.6797 16.5258 21.8092
H 18.7933 17.1911 20.454
Ow 25.9644 22.7714 10.5575
H 1.14081 23.1806 10.2457
H 0.626034 22.1144 11.1892
Ow 8.76849 23.7584 1.07606
H 9.34303 24.02 1.79559
H 9.27012 23.9548 25.9157
Ow 21.5466 6.57816 0.595529
H 21.3469 6.28846 1.48572
H 22.4958 6.7018 0.590598
Ow 13.4779 9.67694 14.7134
H 13.3073 8.79653 15.0481
H 14.4324 9.74108 14.6822
Ow 18.1368 10.5941 11.0754
H 17.1811 10.647 11.0844
H 18.427 11.4344 11.4304
Ow 11.4039 3.96978 18.5662
H 12.222 4.4142 18.7888
H 10.8014 4.20944 19.2703
Ow 16.4575 6.68354 5.00019
H 16.4408 7.57044 4.6405
H 15.5521 6.51265 5.25958
Ow 21.1694 1.37602 7.60435
H 21.9696 1.00672 7.23081
H 20.5218 1.30426 6.9031
Ow 2.85007 14.5605 19.9643
H 2.52641 13.7261 20.3037
H 2.87942 15.1355 20.729
Ow 7.53529 3.30347 10.1221
H 7.29421 2.68097 9.43608
H 7.77162 4.10167 9.6496
Ow 5.30989 5.43327 19.4527
H 4.89596 4.60644 19.2053
H 4.61798 5.92511 19.895
Ow 8.93865 17.8957 10.9738
H 9.84861 17.8926 10.6768
H 8.43537 17.6189 10.2081
Ow 12.0488 11.8265 0.870399
H 12.5391 11.749 1.68887
H 11.3836 12.4906 1.05104
Ow 20.7821 7.43281 17.5761
H 21.7179 7.59232 17.4536
H 20.718 7.03575 18.4447
Ow 3.14725 1.90856 13.2272
H 3.08663 2.48132 13.9917
H 2.52492 2.2779 12.6006
Ow 8.79318 8.47053 12.5131
H 8.16482 9.03665 12.0649
H 8.70339 7.62186 12.0796
Ow 13.8311 1.28768 7.82745
H 13.7596 1.91697 7.10973
H 12.9672 0.878039 7.87438
Ow 12.3056 20.2063 1.16976
H 13.0122 20.4014 1.78523
H 12.2513 20.9827 0.61266
Ow 21.7357 7.27909 14.1022
H 22.0018 7.91696 13.44
H 22.4045 7.34743 14.7836
Ow 4.51474 20.426 4.76257
H 3.87573 21.1205 4.6028
H 4.39977 19.8209 4.02985
Ow 10.9088 1.12008 1.27441
H 10.0958 1.53599 1.56135
H 10.9191 25.9071 1.72617
Ow 22.142 3.34606 9.12484
H 21.9175 2.65911 8.49719
H 22.6463 3.98077 8.6158
Ow 9.41839 8.05317 4.98311
H 9.58602 7.85923 5.90535
H 8.91147 8.865 4.99689
Ow 16.006 21.4418 10.7217
H 16.7227 21.6082 11.334
H 15.5903 20.6444 11.0497
Ow 23.9397 5.40311 7.72677
H 23.6467 5.8618 8.51418
H 24.8429 5.1507 7.91812
Ow 9.27578 25.624 10.7964
H 8.48147 25.741 10.2752
H 9.56485 24.7336 10.5966
Ow 25.3666 2.58485 6.07433
H 24.6339 2.02584 5.81566
H 25.4542 2.44462 7.01713
Ow 1.95518 2.25328 20.7242
H 1.76415 2.96076 20.1084
H 1.09508 1.93641 21
Ow 18.2019 7.92784 11.9862
H 18.3531 7.49112 11.148
H 18.4879 8.82983 11.842
Ow 25.4202 23.9288 20.6178
H 25.1717 24.8531 20.6173
H 25.6879 23.7527 21.5198
Ow 5.56329 10.2132 24.0601
H 5.2726 10.9322 23.4991
H 6.40529 9.94628 23.6913
Ow 25.232 22.2448 0.935422
H 25.0221 23.0618 1.38799
H 25.6958 22.5207 25.7757
Ow 14.347 20.8178 3.44336
H 14.6833 21.7041 3.31047
H 13.751 20.8965 4.18824
Ow 9.79892 8.23954 1.23183
H 10.5668 8.55259 1.71002
H 9.11206 8.873 1.43965
Ow 3.03458 6.24967 4.52299
H 3.97445 6.06846 4.5291
H 2.84582 6.50791 3.62082
Ow 12.7996 24.4606 22.5404
H 12.4332 24.3818 23.4212
H 13.0986 25.3682 22.4852
Ow 9.34887 20.5428 1.89391
H 9.55974 20.6333 0.964634
H 9.57683 21.3905 2.27546
Ow 2.34056 22.854 16.0944
H 2.29845 22.0407 15.5914
H 1.5219 23.3057 15.8894
Ow 11.8075 19.008 12.7424
H 11.6707 19.2577 11.8286
H 11.9555 19.8367 13.1981
Ow 10.2342 7.98189 24.0663
H 9.51429 8.39855 23.5926
H 9.95753 7.99418 24.9826
Ow 12.2306 16.7062 10.4238
H 12.184 16.3088 11.2933
H 11.9669 16.0068 9.8258
Ow 13.6596 7.05652 3.73684
H 13.5035 6.61353 4.57087
H 13.7952 6.34632 3.10957
Ow 13.5458 8.14272 25.3719
H 13.9052 8.27282 0.618654
H 13.1447 7.27415 25.4032
Ow 7.16942 18.2877 4.37196
H 6.2895 18.2178 4.74222
H 7.56897 17.4342 4.53998
Ow 20.8131 8.04074 9.12378
H 21.3532 7.3388 9.48685
H 19.9292 7.67434 9.09756
Ow 15.1429 19.7288 13.6077
H 14.6141 20.5209 13.5118
H 14.795 19.3012 14.3902
Ow 17.1532 5.51971 2.58606
H 17.8182 4.92894 2.9397
H 16.7329 5.89787 3.35846
Ow 13.9032 5.93577 9.9416
H 14.0366 5.90281 8.99431
H 13.0158 6.27857 10.0473
Ow 7.91512 3.69211 24.7798
H 8.79242 3.38979 24.5449
H 7.88099 4.59607 24.4668
Ow 16.5344 2.93672 3.48875
H 16.2125 2.06648 3.25359
H 17.4696 2.81126 3.64977
Ow 1.02807 5.13208 23.7233
H 1.32874 5.29503 24.6173
H 1.55997 5.71475 23.1812
Ow 16.0607 24.1774 4.77876
H 16.388 24.1616 3.87941
H 16.6887 24.7221 5.25319
Ow 23.2348 7.93335 4.06277
H 24.0079 7.53016 4.4576
H 22.7757 7.208 3.63929
Ow 20.1531 17.9416 15.1371
H 20.476 18.4617 14.4012
H 19.5823 17.2864 14.7358
Ow 6.32757 16.1548 15.7555
H 5.75829 16.6074 15.1332
H 6.83194 16.8539 16.1717
Ow 16.8721 19.4717 15.8108
H 17.0954 19.9658 16.5996
H 16.312 18.7611 16.1232
Ow 21.51 6.00098 6.34409
H 21.3858 5.53741 5.51589
H 22.432 5.86257 6.56071
Ow 17.4815 21.3393 4.57248
H 17.3503 22.1945 4.1631
H 17.5332 21.5272 5.50963
Ow 15.6299 23.1922 20.9785
H 16.4834 23.6148 20.8831
H 15.1763 23.3791 20.1566
Ow 13.5046 23.0091 6.02973
H 12.6249 22.6452 6.12911
H 13.9879 22.6788 6.78711
Ow 15.0448 0.597831 14.3565
H 15.8279 0.781169 13.8375
H 15.1057 25.2956 14.5614
Ow 16.9433 4.60457 13.7982
H 17.2129 3.79747 13.3599
H 16.0395 4.74142 13.5143
Ow 24.9636 13.8758 0.742038
H 25.8991 13.9554 0.555828
H 24.5799 14.6796 0.391327
Ow 24.5189 5.04798 2.28489
H 23.5739 5.0433 2.43732
H 24.6559 4.38602 1.6072
Ow 11.3421 17.462 19.3047
H 11.1391 17.6088 18.3808
H 12.2813 17.2778 19.3177
Ow 7.736 25.4293 6.54366
H 7.08082 25.9715 6.10427
H 7.91015 25.884 7.36778
Ow 5.53349 22.2568 14.2319
H 5.49246 21.9793 15.1471
H 6.45545 22.1608 13.9932
Ow 8.15645 10.5798 5.62597
H 8.91256 10.7087 6.19862
H 7.73517 11.4385 5.58783
Ow 8.48918 2.19805 1.90055
H 8.46149 2.42394 2.8303
H 7.66664 1.73506 1.74147
Ow 6.61367 22.1475 1.17048
H 7.45144 22.6099 1.14667
H 6.7916 21.3066 0.749246
Ow 5.32948 17.1598 6.38484
H 4.57892 17.6953 6.64191
H 5.79965 16.9972 7.20262
Ow 21.4725 14.624 24.336
H 21.4896 15.506 23.9644
H 20.9626 14.7126 25.1412
Ow 12.2059 10.6183 9.71438
H 11.8982 9.90038 10.2677
H 11.7435 10.4973 8.88506
Ow 11.7549 0.769428 24.3717
H 11.2194 1.39048 23.8779
H 11.4781 0.883659 25.2808
Ow 19.7869 10.4285 16.9882
H 20.4944 10.4938 16.3468
H 19.7037 9.49035 17.1591
Ow 25.5666 7.21622 13.0148
H 25.8229 7.01995 12.1137
H 24.8665 7.86344 12.9296
Ow 24.863 21.3972 8.50943
H 25.4744 21.1842 7.8044
H 25.418 21.7221 9.2184
Ow 3.06983 3.49052 22.8313
H 2.26295 3.93012 23.0995
H 2.82387 2.99179 22.0522
Ow 7.55444 21.6537 12.2709
H 8.39821 21.345 12.6011
H 7.61134 21.5387 11.3224
Ow 4.13565 10.8906 18.7172
H 4.67526 10.4818 19.3939
H 3.59199 10.1781 18.3809
Ow 8.39791 0.706298 20.8571
H 7.68404 1.29691 20.6168
H 7.98078 25.6617 21.3919
Ow 2.49377 8.75944 17.5096
H 1.95767 8.67845 16.7208
H 3.32622 8.34799 17.2773
Ow 12.1268 10.1227 23.7022
H 12.7974 9.6284 24.1735
H 11.3293 9.60323 23.8046
Ow 19.3643 24.5503 13.23
H 18.5168 24.7973 12.8598
H 19.7362 25.373 13.5478
Ow 11.4748 13.2859 10.3762
H 10.5674 13.5212 10.1828
H 11.5372 12.3593 10.1442
Ow 20.751 22.0251 6.62162
H 20.6892 22.7995 6.06237
H 21.2477 22.3195 7.38509
Ow 23.2285 22.0709 23.3562
H 24.0159 22.6113 23.4203
H 22.5249 22.6929 23.1711
Ow 3.65177 17.7563 20.1613
H 4.31753 17.1635 19.8126
H 3.02686 17.8638 19.4443
Ow 12.1501 14.6247 12.909
H 12.8134 14.0355 13.2683
H 11.6283 14.0722 12.327
Ow 15.4404 11.821 5.253
H 16.1388 12.4324 5.01939
H 15.5616 11.6646 6.18953
Ow 20.6879 20.3448 21.6775
H 20.4073 20.1321 22.5676
H 21.0069 19.5153 21.3219
Ow 25.1912 8.82967 8.12709
H 25.5235 8.28395 8.83985
H 24.3578 9.16913 8.45323
Ow 20.2005 23.0842 2.58704
H 19.8945 22.1803 2.66112
H 20.4536 23.3257 3.47804
Ow 23.4855 20.2563 13.4736
H 24.1619 19.5847 13.5609
H 23.7958 20.9813 14.0161
Ow 24.9238 23.1994 4.87293
H 24.4373 23.7932 5.4447
H 24.4413 22.3739 4.91802
Ow 4.95453 20.6865 11.5727
H 5.75957 20.2153 11.7875
H 4.43506 20.0579 11.0714
Ow 25.3617 2.80062 23.9464
H 25.8133 3.6301 23.7907
H 25.34 2.37463 23.0895
Ow 24.2123 3.90999 20.0606
H 23.2626 3.89481 20.1795
H 24.4951 3.02066 20.2736
Ow 4.52899 9.35483 1.11859
H 4.24526 8.45821 1.29688
H 3.72758 9.81506 0.869274
Ow 18.1027 6.57808 21.2558
H 18.9188 7.07553 21.3083
H 17.4926 7.05813 21.8159
Ow 11.7078 1.62067 10.1175
H 11.6537 2.28547 9.43094
H 10.8486 1.19896 10.1115
Ow 5.36481 16.2808 22.6303
H 5.61426 15.9715 21.7595
H 4.45609 15.9985 22.7341
Ow 21.6225 24.2117 11.3185
H 21.0145 24.8159 10.8922
H 21.127 23.8518 12.0541
Ow 7.8175 22.4423 6.80684
H 7.85757 23.3819 6.62876
H 8.72183 22.142 6.71596
Ow 3.08495 16.9152 0.494976
H 2.88715 15.9793 0.459779
H 2.81855 17.2492 25.2692
Ow 16.5128 4.80276 10.7003
H 16.4104 3.89273 10.4217
H 17.2857 5.11268 10.2282
Ow 1.64112 20.5139 1.09583
H 0.957928 21.1569 1.28556
H 1.31623 20.0368 25.9631
Ow 4.14967 16.2807 10.268
H 3.55233 16.3588 9.52414
H 5.00378 16.5334 9.91745
Ow 17.5612 24.3529 8.56979
H 17.4549 23.4975 8.1537
H 17.4542 24.9819 7.85617
Ow 18.0719 18.5153 5.11949
H 17.3737 18.2501 5.71816
H 18.8463 18.5988 5.67588
Ow 17.6354 16.7226 23.4131
H 16.7908 16.2858 23.303
H 17.4143 17.5915 23.7485
Ow 6.01999 18.7332 21.71
H 5.7003 18.0158 22.2573
H 6.79704 18.3779 21.2785
Ow 5.156 12.3679 25.9074
H 5.63184 12.9048 0.910214
H 4.40945 12.9078 25.648
Ow 15.6351 17.3892 6.19952
H 15.1294 17.5472 6.99678
H 14.9788 17.3432 5.50426
Ow 16.0368 2.62091 20.6734
H 16.3835 2.17585 21.4466
H 16.7293 3.22965 20.4161
Ow 13.3594 7.88275 17.8382
H 12.7714 8.49344 18.2826
H 13.4558 7.1536 18.4507
Ow 10.6504 3.52091 24.1948
H 10.6211 3.82171 23.2866
H 11.1931 4.16845 24.6447
Ow 17.6386 8.53259 23.5546
H 17.0649 9.24422 23.2705
H 17.1398 8.07894 24.2341
Ow 11.0576 19.4354 3.85254
H 11.4963 18.8839 4.50027
H 10.3019 19.7957 4.31657
Ow 5.01692 8.89705 20.4678
H 5.32748 9.30938 21.2739
H 4.3817 8.24404 20.7616
Ow 4.8989 2.65814 8.05512
H 5.18749 2.06223 8.74637
H 5.69502 3.11576 7.78492
Ow 20.3246 4.8138 12.8067
H 20.1947 4.56413 11.8918
H 20.3282 3.98395 13.2838
Ow 25.4594 8.08988 1.42188
H 25.259 7.45467 2.10933
H 25.1291 7.68679 0.618981
Ow 6.22708 24.8803 3.99392
H 6.14278 25.3115 3.1435
H 6.56404 24.0083 3.7885
Ow 9.05792 10.8819 2.9543
H 9.36516 11.7391 2.65927
H 8.93356 10.9833 3.89796
Ow 20.4115 15.9472 4.29782
H 19.6542 16.2605 3.80334
H 21.0919 16.6002 4.13393
Ow 9.24388 0.911555 13.4243
H 9.01227 1.81455 13.6416
H 9.26806 0.893531 12.4676
Ow 12.4161 11.126 4.79747
H 11.9051 11.1375 5.60682
H 11.96 10.5003 4.23465
Ow 21.4233 24.6393 19.2502
H 22.1414 24.1564 19.6594
H 20.7073 24.5865 19.8833
Ow 22.1092 22.4663 25.8959
H 22.272 21.7381 0.864644
H 22.6766 22.2906 25.1453
Ow 2.10786 22.7665 19.1962
H 2.54497 22.9052 20.0364
H 2.79046 22.9185 18.5426
Ow 17.7979 16.0221 3.31538
H 17.5871 16.7279 3.9266
H 17.2303 16.1804 2.56101
Ow 13.5688 14.6791 0.90619
H 13.4453 15.0072 25.6463
H 12.8101 15.0059 1.38969
Ow 8.82486 25.079 16.0952
H 8.46673 25.9031 16.425
H 9.08655 24.5994 16.8812
Ow 3.34641 19.8391 16.9042
H 3.2984 19.8231 15.9483
H 3.74313 20.6855 17.1104
Ow 25.9284 20.8745 18.2398
H 25.5144 21.4234 17.5738
H 0.994523 21.4213 18.6023
Ow 15.3511 23.7083 15.0569
H 14.7943 23.0445 14.6498
H 15.2652 23.5498 15.9969
Ow 22.0019 14.3449 7.60558
H 21.6863 13.8744 8.3771
H 21.9948 15.2658 7.86665
Ow 21.5597 17.2063 23.24
H 20.8533 17.7053 23.6503
H 22.3028 17.8094 23.2259
Ow 2.33814 25.5947 23.8037
H 1.9346 0.55885 24.4356
H 1.72345 24.8641 23.7356
Ow 15.55 10.1722 17.323
H 16.1106 10.929 17.1525
H 15.6131 9.64274 16.5281
Ow 13.5403 10.5926 21.1952
H 13.9658 9.7486 21.3466
H 12.6602 10.4857 21.5561
Ow 21.804 15.0824 21.1967
H 22.7591 15.0243 21.2204
H 21.5221 14.2485 20.8207
Ow 8.45403 16.3866 13.98
H 7.85439 16.231 14.7097
H 9.32664 16.3018 14.3642
Ow 10.8497 15.6881 15.0073
H 11.0516 14.8389 15.4001
H 11.4128 15.735 14.2346
Ow 2.86762 3.48088 3.77065
H 3.81104 3.36869 3.88729
H 2.76431 3.69601 2.84367
Ow 16.2154 14.8819 7.29242
H 16.023 15.7393 6.91268
H 15.3797 14.5864 7.65357
Ow 0.98204 11.0978 7.0493
H 0.518922 10.3836 7.48709
H 1.7867 11.2081 7.55584
Ow 24.5701 24.2065 12.4615
H 24.9679 23.7548 11.7172
H 25.3119 24.564 12.9496
Ow 25.4899 9.3567 18.7793
H 24.8761 9.03118 18.1209
H 0.719892 9.26572 18.3707
Ow 1.71497 18.2494 18.161
H 1.93592 17.3376 17.9713
H 2.3296 18.76 17.634
Ow 20.0704 1.57849 1.16848
H 19.2998 1.3235 0.661283
H 20.6623 1.96914 0.525604
Ow 9.39425 5.70699 8.63075
H 8.91091 5.18372 7.99137
H 9.91923 6.30757 8.10167
Ow 3.29557 23.3484 12.7145
H 3.37651 23.1993 11.7724
H 4.10462 23.799 12.9565
Ow 10.9968 5.61056 11.7161
H 10.0541 5.66168 11.8741
H 11.3003 6.5161 11.7801
Ow 8.72398 9.88208 9.93137
H 8.46785 10.7549 10.2295
H 9.3898 10.0427 9.2627
Ow 11.039 12.7125 24.065
H 10.9086 12.5784 23.1262
H 11.3578 13.6123 24.1369
Ow 9.95222 13.3641 1.89003
H 10.4096 14.052 2.3736
H 9.06645 13.7055 1.76722
Ow 12.5484 22.0966 24.8961
H 13.0938 22.823 25.1981
H 11.6959 22.4942 24.7187
Ow 10.7162 0.947887 18.4128
H 11.3801 0.415421 17.9746
H 11.206 1.46107 19.0555
Ow 23.3366 20.361 10.7116
H 23.4892 20.4115 11.6552
H 22.3838 20.3781 10.6212
Ow 22.2941 20.3197 17.8694
H 23.0543 19.9943 17.3873
H 22.6648 20.8724 18.5574
Ow 24.7954 24.5339 2.53171
H 24.7599 24.06 3.36258
H 25.4947 25.1765 2.65157
Ow 24.7224 13.0115 8.25277
H 24.9522 13.185 9.16564
H 25.4003 12.4101 7.94474
Ow 25.4296 12.7086 23.3739
H 24.8526 13.4624 23.2513
H 25.8274 12.8481 24.2332
Ow 9.91314 15.7652 21.2641
H 9.12732 15.4003 21.671
H 10.4872 15.9786 21.9997
Ow 9.36348 21.9427 20.5016
H 8.41415 21.8876 20.3921
H 9.48375 22.2676 21.3939
Ow 17.2924 23.3248 2.44863
H 17.2242 22.6766 1.74758
H 18.151 23.7279 2.31995
Ow 22.4264 23.7957 14.5208
H 22.8184 24.0233 13.6778
H 23.0788 23.2394 14.9464
Ow 7.48139 17.6219 1.70398
H 6.98662 16.8136 1.83866
H 7.37689 18.1065 2.52279
Ow 17.1744 1.70848 12.7876
H 17.3013 1.96817 11.8751
H 18.0611 1.60674 13.1337
Ow 12.2961 24.9306 16.6936
H 13.1549 24.5451 16.8669
H 12.152 24.7852 15.7586
Ow 6.37846 2.44161 12.593
H 6.86738 3.03716 13.1609
H 6.6042 2.71764 11.7047
Ow 16.2264 10.8043 22.6553
H 16.7876 11.1561 21.9643
H 15.3419 11.0718 22.4055
Ow 9.81759 7.48906 16.8112
H 10.4899 7.84045 17.395
H 10.1218 6.60677 16.5985
Ow 16.2733 24.6624 11.289
H 15.5528 24.0485 11.4311
H 16.6255 24.4247 10.4312
Ow 14.4093 5.16197 21.7582
H 13.4897 5.2333 22.0138
H 14.7502 4.44054 22.287
Ow 5.68293 5.82143 4.52588
H 6.51193 5.95603 4.06668
H 5.93016 5.3997 5.34884
Ow 22.794 0.846899 12.6004
H 21.9471 1.07191 12.9856
H 23.4357 1.28696 13.1579
Ow 12.4247 2.65924 2.91503
H 12.2336 2.28629 3.77562
H 11.976 2.08127 2.29796
Ow 3.25 13.0066 17.2578
H 3.55119 12.8894 16.3568
H 3.65512 12.2869 17.7417
Ow 14.5185 13.9293 17.7692
H 14.3105 14.8035 18.099
H 15.1705 13.5903 18.3826
Ow 18.0642 15.0278 17.8259
H 18.9577 14.6952 17.7407
H 17.764 15.1429 16.9243
Ow 22.6116 12.185 0.850673
H 22.1084 12.7569 1.43028
H 23.5098 12.5098 0.913794
Ow 3.18519 18.407 7.24784
H 2.59186 17.6654 7.36728
H 2.6076 19.1524 7.08388
Ow 5.28604 9.6528 9.44088
H 5.86709 10.0452 10.0925
H 4.46325 9.50922 9.90846
Ow 24.3818 15.2192 21.7072
H 24.1077 15.2856 22.6219
H 25.0118 15.9307 21.5932
Ow 5.66675 23.2965 8.98855
H 6.00127 24.1933 8.98751
H 4.7174 23.3945 9.06168
Ow 13.9978 24.2024 25.6439
H 13.8286 25.1285 25.4712
H 14.7608 23.9933 25.105
Ow 17.8598 2.02523 9.99439
H 17.3861 2.07072 9.16386
H 18.2662 1.15862 9.99169
Ow 11.5776 9.1959 3.09928
H 10.6894 9.16816 3.45506
H 11.9864 8.3886 3.4113
Ow 20.7355 17.6289 0.865929
H 21.6352 17.4349 0.60308
H 20.4529 16.851 1.34688
Ow 13.9658 12.4618 24.2443
H 14.7933 12.1524 24.6128
H 14.2202 12.9577 23.466
Ow 13.0683 6.80253 15.3366
H 13.3576 7.02833 16.2206
H 12.1894 6.44274 15.4562
Ow 9.77459 5.04618 1.4167
H 10.6876 5.25423 1.21813
H 9.54108 5.6443 2.1266
Ow 4.01598 3.3939 18.4171
H 4.73435 2.85253 18.7443
H 4.15853 3.43579 17.4715
Ow 25.627 9.92753 24.2695
H 25.9006 9.27203 23.6279
H 25.511 10.729 23.7592
Ow 8.66812 15.808 5.07664
H 8.9616 16.4141 5.75688
H 9.39794 15.7694 4.45848
Ow 25.7643 7.82813 5.73653
H 25.8046 6.87767 5.84248
H 25.3055 8.13744 6.51758
Ow 2.51947 13.9835 10.2185
H 2.14778 14.7393 9.7637
H 2.44089 13.264 9.59209
Ow 25.2356 11.2015 14.0278
H 25.8013 11.3427 13.2687
H 24.4144 10.8772 13.658
Ow 11.162 9.22313 18.9549
H 11.4033 10.1109 18.6904
H 10.359 9.33428 19.464
Ow 13.048 19.6286 20.9663
H 13.3607 19.8586 20.0913
H 13.4472 20.2801 21.5428
Ow 2.90653 4.40987 6.73751
H 3.26271 3.62291 7.14989
H 2.16152 4.65267 7.28727
Ow 16.6419 19.1435 24.3604
H 16.8307 19.9213 24.8853
H 15.7052 18.991 24.4856
Ow 8.02744 17.7873 19.7864
H 7.6083 16.9307 19.8689
H 7.81587 18.0735 18.8979
Ow 10.3547 13.465 6.3132
H 10.362 12.6533 6.82054
H 10.7778 14.1077 6.88253
Ow 2.80439 22.913 21.8493
H 3.69288 23.0981 22.1535
H 2.2785 22.8826 22.6485
Ow 3.39829 20.1349 22.0171
H 2.83636 20.9026 21.9117
H 2.92874 19.5771 22.6373
Ow 23.6626 15.4814 12.579
H 24.0361 16.3587 12.4955
H 22.7791 15.5615 12.2194
Ow 8.04816 1.71906 17.5264
H 8.88322 1.62747 17.9853
H 8.18274 2.45344 16.9274
Ow 8.93121 9.35506 15.1285
H 8.90596 8.97594 14.2499
H 9.3506 8.68428 15.6673
Ow 15.1176 1.08302 1.92986
H 15.7118 0.46581 1.50294
H 14.5135 1.35227 1.23791
Ow 7.61784 7.46563 9.63329
H 8.11826 8.27927 9.69486
H 8.25265 6.81567 9.33196
Ow 9.98518 20.1724 24.5706
H 9.89825 21.0285 24.1512
H 10.7323 19.7651 24.1322
Ow 14.5453 1.69339 10.5221
H 14.8144 0.820827 10.8094
H 14.3762 1.59603 9.58506
Ow 11.3973 24.2762 14.2051
H 11.8493 24.9626 13.7144
H 11.9121 23.4859 14.042
Ow 14.368 4.63 2.22255
H 13.8389 3.90287 2.55057
H 14.031 4.79379 1.34174
Ow 6.10595 4.97796 16.5391
H 5.44292 4.69359 15.91
H 6.91278 4.55514 16.2451
Ow 25.7872 11.5326 4.1889
H 25.4758 10.9448 3.50064
H 25.0934 12.186 4.2785
Ow 24.1002 2.52129 1.22389
H 23.3438 2.57398 0.63965
H 23.7264 2.32769 2.08356
Ow 7.71939 13.6304 13.4114
H 7.84852 14.5725 13.5202
H 7.98817 13.4538 12.5098
Ow 4.02397 1.32591 5.82948
H 4.58932 1.64272 5.12504
H 4.49355 1.5496 6.63303
Ow 11.2026 7.4712 7.33054
H 12.0884 7.25006 7.04322
H 11.2079 8.42486 7.41254
Ow 5.75694 15.8719 25.6748
H 5.78333 15.2807 0.796313
H 4.89213 16.2797 25.7202
Ow 4.49632 6.23976 13.3937
H 4.32064 6.04845 12.4724
H 4.33833 5.41072 13.8453
Ow 25.6824 4.39253 12.6214
H 25.8262 5.01299 13.336
H 24.8104 4.60646 12.2897
Ow 19.7655 2.77306 5.32186
H 19.7328 3.07273 4.41337
H 19.5546 1.84058 5.27473
Ow 6.4617 10.568 11.6923
H 5.98882 10.3973 12.5069
H 6.92858 11.388 11.8532
Ow 0.572939 8.21431 21.8978
H 1.48907 7.94854 21.8184
H 25.7468 7.70316 21.2298
Ow 10.7359 2.34598 5.69642
H 10.8008 2.68223 6.59026
H 10.9863 1.42488 5.76774
Ow 20.2612 14.7645 1.25283
H 19.5494 14.1868 0.977309
H 20.4995 14.4522 2.12569
Ow 7.91409 7.20579 18.7518
H 8.64409 7.26201 18.1352
H 7.85626 8.08074 19.1356
Ow 1.98365 15.5572 17.3084
H 1.23599 15.1763 17.769
H 1.67842 15.6709 16.4083
Ow 18.7052 3.34289 16.5342
H 18.6174 2.89576 15.6924
H 19.2525 4.10511 16.3451
Ow 9.1041 19.5647 13.5225
H 9.00458 19.8921 14.4165
H 10.0336 19.3487 13.4481
Ow 19.0317 8.17738 5.99085
H 19.8862 8.35409 5.59735
H 18.4645 8.87129 5.65462
Ow 1.58114 4.59033 19.304
H 2.10269 4.4613 18.5118
H 2.07397 5.23342 19.8137
Ow 1.40909 6.13384 15.4643
H 0.752525 5.69299 16.0036
H 2.14552 5.52303 15.4356
Ow 4.93121 8.61648 4.60945
H 4.8512 8.86892 3.68961
H 5.23636 7.70959 4.58375
Ow 24.8742 6.72861 19.8328
H 24.6917 7.59979 19.4807
H 24.2176 6.60451 20.5182
Ow 8.22889 5.91817 3.83476
H 8.39715 5.06066 4.22539
H 8.84491 6.50608 4.27193
Ow 16.0691 25.8634 18.9689
H 16.8577 25.5134 19.3834
H 15.7104 25.1263 18.4747
Ow 11.995 2.37141 15.7698
H 12.5421 1.5947 15.8863
H 11.3307 2.30214 16.4555
Ow 23.3796 17.795 25.9697
H 23.4654 18.3039 25.1636
H 23.857 18.3025 0.995146
Ow 18.3075 12.4401 7.45407
H 19.1365 12.0164 7.67641
H 17.6371 11.8126 7.72457
Ow 10.2496 17.8134 1.25724
H 9.29862 17.728 1.18963
H 10.5138 17.1008 1.83919
Ow 13.2588 23.6147 10.8577
H 13.158 23.0616 11.6324
H 12.4013 23.5914 10.433
Ow 22.939 9.74669 9.28551
H 22.9266 9.16642 10.0467
H 22.886 10.6282 9.65484
Ow 2.77225 9.42808 10.844
H 2.11266 10.0532 11.1448
H 2.27037 8.74479 10.3996
Ow 14.1477 12.4702 2.77317
H 13.9455 13.3615 2.48857
H 15.0736 12.3544 2.55999
Ow 23.1214 22.2485 20.1056
H 22.9356 21.9372 20.9915
H 23.8872 22.8139 20.2056
Ow 18.2072 20.6165 13.1123
H 19.0656 20.1978 13.0488
H 18.2987 21.2442 13.8292
Ow 23.0642 15.9466 17.903
H 22.4416 15.2788 18.1906
H 22.8088 16.1404 17.0011
Ow 21.9282 8.90508 6.63965
H 22.2209 9.19367 5.77518
H 21.8553 7.95374 6.5631
Ow 15.5754 7.69296 11.6997
H 16.4713 7.71901 12.0357
H 15.445 8.55159 11.2972
Ow 10.8359 22.6031 6.73278
H 10.5055 23.4155 6.34922
H 10.7162 22.7168 7.67563
Ow 3.80626 22.7623 0.890136
H 4.68501 22.5166 1.17931
H 3.29329 21.9583 0.971142
Ow 3.43805 24.7946 4.14602
H 3.32103 25.1121 3.25064
H 4.38649 24.7839 4.27481
Ow 21.7112 18.0646 20.3171
H 21.3121 18.2465 19.4663
H 22.5804 18.4621 20.2644
Ow 8.50742 12.6887 19.0446
H 8.019 13.4032 19.4535
H 8.21415 12.6882 18.1334
Ow 16.6403 8.29277 19.2789
H 17.3645 7.75775 19.6037
H 16.4572 7.94452 18.4063
Ow 19.6335 3.90163 10.1187
H 20.4607 3.65861 9.70298
H 19.138 3.08387 10.1633
Ow 23.3125 0.920271 17.89
H 23.2709 1.6668 17.2924
H 23.8539 1.2255 18.618
Ow 9.63714 20.3246 16.149
H 10.3267 19.6648 16.0759
H 8.92785 19.88 16.6132
Ow 14.8395 9.03694 1.97133
H 14.3366 9.76363 2.33907
H 14.6636 8.30187 2.55867
Ow 3.29752 12.4217 14.0414
H 3.50985 13.1538 13.4624
H 3.9738 11.7689 13.8606
Ow 11.5334 8.3425 11.8401
H 10.69 8.57604 12.2278
H 12.157 8.41075 12.563
Ow 23.1738 18.796 8.07083
H 22.7175 17.9812 8.28083
H 23.7506 18.5671 7.342
Ow 1.44252 1.64937 25.9065